LAMMPS (29 Oct 2020)
  using 1 OpenMP thread(s) per MPI task
#Read the equilibrated lj fluid and add nanocubes

units           lj
atom_style      full
atom_modify     map array first cubes
dimension       3
boundary        p p f
pair_style      lj/cut/opt 2.5

variable        sigma           equal 1.0
variable        epsilon         equal 1.0
read_restart	restart.dat.10000000
Reading restart file ...
  restart file = 24 Dec 2020, LAMMPS = 29 Oct 2020
WARNING: Restart file used different # of processors: 192 vs. 64 (src/read_restart.cpp:697)
  restoring atom style full from restart
  orthogonal box = (0.0000000 0.0000000 0.0000000) to (80.000000 80.000000 160.00000)
  2 by 4 by 8 MPI processor grid
  restoring pair style lj/cut/opt from restart
  443961 atoms
Finding 1-2 1-3 1-4 neighbors ...
  special bond factors lj:    0.0      0.0      0.0     
  special bond factors coul:  0.0      0.0      0.0     
     0 = max # of 1-2 neighbors
     0 = max # of 1-3 neighbors
     0 = max # of 1-4 neighbors
     1 = max # of special neighbors
  special bonds CPU = 3.583 seconds
  read_restart CPU = 6.439 seconds

group		solvent type 1
443961 atoms in group solvent

read_data	data_150_s2.cubes group cubes add append
Reading data file ...
  orthogonal box = (0.0000000 0.0000000 0.0000000) to (80.000000 80.000000 160.00000)
  2 by 4 by 8 MPI processor grid
  reading atoms ...
  200025 atoms
  reading velocities ...
  200025 velocities
Finding 1-2 1-3 1-4 neighbors ...
  special bond factors lj:    0.0      0.0      0.0     
  special bond factors coul:  0.0      0.0      0.0     
     0 = max # of 1-2 neighbors
     0 = max # of 1-3 neighbors
     0 = max # of 1-4 neighbors
     1 = max # of special neighbors
  special bonds CPU = 0.171 seconds
  read_data CPU = 1.509 seconds

group 		hull  type 2
78050 atoms in group hull
group 		dummy type 3
121975 atoms in group dummy

neighbor      0.4 bin
neigh_modify  exclude molecule/intra cubes


pair_modify   shift yes

pair_coeff    1 1 1.0 1.0 #solvent
pair_coeff    2 2 1.0 1.0 1.12 #np
pair_coeff    3 3 0.0 0.0 0.0 #dummy
pair_coeff    2 3 0.0 0.0 0.0 #np dummy
pair_coeff    1 2 ${sol} 1.0  #np solvent
pair_coeff    1 2 .90 1.0  
pair_coeff    1 3 0.0 0.0 2.5 #dummy solvent

# delete solvent where the cubes are
delete_atoms  overlap 1.0 solvent cubes
System init for delete_atoms ...
Unused restart file peratom fix info:
  fix style: STORE, fix ID: bin1_COMPUTE_STORE
Neighbor list info ...
  update every 1 steps, delay 10 steps, check yes
  max neighbors/atom: 2000, page size: 100000
  master list distance cutoff = 2.9
  ghost atom cutoff = 2.9
  binsize = 1.45, bins = 56 56 111
  2 neighbor lists, perpetual/occasional/extra = 1 1 0
  (1) command delete_atoms, occasional
      attributes: full, newton on
      pair build: full/bin
      stencil: full/bin/3d
      bin: standard
  (2) pair lj/cut/opt, perpetual
      attributes: half, newton on
      pair build: half/bin/newton
      stencil: half/bin/3d/newton
      bin: standard
WARNING: Delete_atoms cutoff > minimum neighbor cutoff (src/delete_atoms.cpp:307)
WARNING: Ignoring 'compress yes' for molecular system (src/delete_atoms.cpp:125)
Deleted 136462 atoms, new total = 507524

pair_coeff    1 1 1.0 1.0 #solvent
pair_coeff    2 2 1.0 1.0 1.12 #np
pair_coeff    3 3 0.0 0.0 0.0 #dummy
pair_coeff    2 3 0.0 0.0 0.0 #np dummy
pair_coeff    1 2 ${sol} 1.0  #np solvent
pair_coeff    1 2 .90 1.0  
pair_coeff    1 3 0.0 0.0 0.0 #dummy solvent


comm_modify   mode multi cutoff/multi 1 2.5 cutoff/multi 2 2.5 cutoff/multi 3 6.95

reset_timestep 	0

balance 	1.05 shift z 10 1.05
Balancing ...
Neighbor list info ...
  update every 1 steps, delay 10 steps, check yes
  max neighbors/atom: 2000, page size: 100000
  master list distance cutoff = 2.9
  ghost atom cutoff = 6.95
  binsize = 1.45, bins = 56 56 111
  1 neighbor lists, perpetual/occasional/extra = 1 0 0
  (1) pair lj/cut/opt, perpetual
      attributes: half, newton on
      pair build: half/bin/newton
      stencil: half/bin/3d/newton
      bin: standard
 rebalancing time: 0.044 seconds
  iteration count = 4
  initial/final maximal load/proc = 10743.000 8939.0000
  initial/final imbalance factor  = 1.3547182 1.1272295
  x cuts: 0.0000000 0.5 1.0000000
  y cuts: 0.0000000 0.25 0.5 0.75 1.0000000
  z cuts: 0.0000000 0.1015625 0.1953125 0.2890625 0.3828125 0.484375 0.578125 0.671875 1.0000000

####################### WALLS ###########################

variable       epsilonWall equal 2*${epsilon}
variable       epsilonWall equal 2*1
variable       repulsive   equal   0.7147*${sigma}
variable       repulsive   equal   0.7147*1
variable       full	   equal   3*${sigma}
variable       full	   equal   3*1
region         lowWall block EDGE EDGE EDGE EDGE EDGE 2

fix            topWall all wall/lj93 zhi EDGE 	       ${epsilonWall} ${sigma} ${repulsive} units box
fix            topWall all wall/lj93 zhi EDGE 	       2 ${sigma} ${repulsive} units box
fix            topWall all wall/lj93 zhi EDGE 	       2 1 ${repulsive} units box
fix            topWall all wall/lj93 zhi EDGE 	       2 1 0.7147 units box
fix            lowSol solvent wall/lj93 zlo EDGE                ${epsilonWall} ${sigma} ${full} units box
fix            lowSol solvent wall/lj93 zlo EDGE                2 ${sigma} ${full} units box
fix            lowSol solvent wall/lj93 zlo EDGE                2 1 ${full} units box
fix            lowSol solvent wall/lj93 zlo EDGE                2 1 3 units box
fix 	       lowCub cubes wall/lj93 zlo EDGE                ${epsilonWall} ${sigma} ${repulsive} units box
fix 	       lowCub cubes wall/lj93 zlo EDGE                2 ${sigma} ${repulsive} units box
fix 	       lowCub cubes wall/lj93 zlo EDGE                2 1 ${repulsive} units box
fix 	       lowCub cubes wall/lj93 zlo EDGE                2 1 0.7147 units box


###################### COMPUTES ##########################

compute        bin1 solvent chunk/atom bin/1d z lower 1.0 units box
compute        bin3 solvent chunk/atom bin/3d x lower 1.0 y lower 1.0 z lower 1.0 units box

compute 	pe solvent 	   pe/atom
compute 	pe2 all 	   pe/atom

######################  FIXES ############################


fix             peclet solvent ave/chunk 10 10 10000 bin1 density/number norm                  none ave one file density.profile

fix              temp solvent ave/chunk 10 10 10000 bin1 temp norm                  none ave one file temp.profile

fix 		 dens solvent ave/chunk 10 10 500000 bin3 density/number norm 		 none ave one file dens3.profile

fix		 temp2 solvent ave/chunk 10 10 500000 bin3 temp norm none ave one file temp3.profile

fix 		pe solvent ave/chunk 1 1 500000 bin3 c_pe norm none ave one file pe3.profile

fix             1 cubes rigid/nve/small molecule
  create bodies CPU = 0.057 seconds
  175 rigid bodies with 200025 atoms
  6.9282032 = max distance from body owner to body atom

fix             2 solvent nve# temp ${temp} ${temp} 10


## Thermostat
region          regthermo block EDGE EDGE EDGE EDGE 0 15
group           thermo dynamic solvent region regthermo every 1000
dynamic group thermo defined
fix             3 thermo langevin ${temp} ${temp} 10 156453
fix             3 thermo langevin 1.0 ${temp} 10 156453
fix             3 thermo langevin 1.0 1.0 10 156453


#### Load balancing

fix             bal all balance 1000 1.05 shift z 10 1.05

############### Diagnostics and computes ###################

compute        	com cubes          rigid/local   1 mol x y z
compute        	quat cubes         rigid/local   1 mol quatw quati quatj quatk

compute 	cc2 cubes 	   chunk/atom 	 molecule
compute 	msd cubes 	   msd/chunk 	 cc2

fix 		msd all ave/time  1 1 10000 c_msd[*] file dump.msd ave one mode vector

dump            1 all custom 500000 dump.lammpstrj id mol type x y z vx vy vz c_pe2
dump		sol  solvent custom 500000 dump.soltrj id x y z vx vy vz c_pe
dump		cubetrj cubes custom 500000 cubes.lammpstrj id mol type x y z vx vy vz
dump            com cubes local 100000 dump.*.xyz c_com[*]
dump	        xyz hull xyz 100000 cubes.xyz
dump            quat cubes      local 100000 dump.*.quat c_quat[*]
dump		order cubes 	local 100000 dump.*.order c_com[*] c_quat[*]
#dump		mol cubes molfile 10000 mol.xyz xyz


dump            2 all image 100000 image.*.png type type zoom 1.5 size 1280 720
dump_modify     2 pad 8
dump		image cubes image 100000 image_cubes.*.png type type zoom 1.5 size 1280 720
dump_modify	image pad 8
dump            3 all movie 5000 movie.avi type type zoom 1.5 size 1280 720
dump		4 cubes movie 5000 movie_cubes.avi type type size 1280 720


thermo          1000
thermo_style    custom step temp epair evdwl etotal press pe ke atoms

restart         1000000 restart.dat
timestep        0.005
timer           full
New timer settings: style=full  mode=nosync  timeout=off

run 		10000000
Per MPI rank memory allocation (min/avg/max) = 91.72 | 101.4 | 102.8 Mbytes
Step Temp E_pair E_vdwl TotEng Press PotEng KinEng Atoms 
       0    1.0158521   -1.9188143   -1.9188143  -0.99453865  -0.12524249   -1.9188143   0.92427565   507524 
    1000    1.0449322   -1.9470976   -1.9470976   -0.9963633  0.067800306   -1.9470976   0.95073425   507524 
    2000    1.0449562   -1.9490149   -1.9490149  -0.99825885  0.064989785   -1.9490149   0.95075608   507524 
    3000    1.0444106   -1.9506546   -1.9506546    -1.000395  0.069283288   -1.9506546   0.95025959   507524 
    4000    1.0439397   -1.9520226   -1.9520226   -1.0021914  0.062874445   -1.9520226   0.94983121   507524 
    5000    1.0422112   -1.9520701   -1.9520701   -1.0038116  0.071859774   -1.9520701   0.94825855   507524 
    6000     1.043435   -1.9555966   -1.9555966   -1.0062245  0.077131948   -1.9555966   0.94937201   507524 
    7000    1.0407149   -1.9559088   -1.9559088   -1.0090117   0.06493396   -1.9559088   0.94689713   507524 
    8000    1.0391043   -1.9554983   -1.9554983   -1.0100666  0.066194531   -1.9554983   0.94543168   507524 
    9000    1.0373507   -1.9571355   -1.9571355   -1.0132993  0.067818081   -1.9571355   0.94383618   507524 
   10000    1.0387143   -1.9602284   -1.9602284   -1.0151515  0.061362965   -1.9602284   0.94507687   507524 
   11000    1.0374708   -1.9604138   -1.9604138   -1.0164683  0.055652703   -1.9604138   0.94394543   507524 
   12000    1.0362226   -1.9601751   -1.9601751   -1.0173654   0.06729052   -1.9601751   0.94280973   507524 
   13000    1.0378011   -1.9636698   -1.9636698   -1.0194239  0.058617394   -1.9636698   0.94424595   507524 
   14000    1.0363509   -1.9626198   -1.9626198   -1.0196934  0.058774415   -1.9626198   0.94292645   507524 
   15000     1.038444   -1.9660087   -1.9660087   -1.0211778  0.066544953   -1.9660087    0.9448309   507524 
   16000    1.0378349   -1.9662293   -1.9662293   -1.0219526  0.076545303   -1.9662293   0.94427668   507524 
   17000    1.0398224   -1.9681962   -1.9681962   -1.0221112  0.065677469   -1.9681962   0.94608502   507524 
   18000    1.0385624    -1.968359    -1.968359   -1.0234204  0.076577768    -1.968359    0.9449386   507524 
   19000    1.0401083   -1.9709548   -1.9709548   -1.0246096  0.057012717   -1.9709548   0.94634514   507524 
   20000     1.040256   -1.9706306   -1.9706306   -1.0241511  0.072510156   -1.9706306   0.94647958   507524 
   21000    1.0396613   -1.9716154   -1.9716154   -1.0256769  0.071783126   -1.9716154   0.94593846   507524 
   22000    1.0412979   -1.9752764   -1.9752764   -1.0278489  0.075287127   -1.9752764   0.94742755   507524 
   23000    1.0401996   -1.9752329   -1.9752329   -1.0288046  0.075907517   -1.9752329   0.94642824   507524 
   24000    1.0434896   -1.9776664   -1.9776664   -1.0282448  0.057973106   -1.9776664   0.94942168   507524 
   25000    1.0434443   -1.9787715   -1.9787715    -1.029391  0.090787468   -1.9787715   0.94938047   507524 
   26000    1.0430701   -1.9791843   -1.9791843   -1.0301443  0.074515827   -1.9791843   0.94904002   507524 
   27000    1.0433445   -1.9797481   -1.9797481   -1.0304584  0.072941821   -1.9797481   0.94928964   507524 
   28000    1.0448896   -1.9822444   -1.9822444   -1.0315489  0.070901989   -1.9822444   0.95069548   507524 
   29000    1.0425364   -1.9812017   -1.9812017   -1.0326474  0.085110816   -1.9812017   0.94855435   507524 
   30000    1.0425836   -1.9819595   -1.9819595   -1.0333621  0.083917741   -1.9819595   0.94859738   507524 
   31000    1.0433582   -1.9828717   -1.9828717   -1.0335695  0.080776958   -1.9828717   0.94930213   507524 
   32000    1.0437797   -1.9845451   -1.9845451   -1.0348595   0.07243994   -1.9845451    0.9496856   507524 
   33000    1.0415043   -1.9826966   -1.9826966   -1.0350813  0.074048953   -1.9826966   0.94761534   507524 
   34000    1.0436689   -1.9851437   -1.9851437    -1.035559  0.083683479   -1.9851437   0.94958476   507524 
   35000    1.0436568   -1.9865029   -1.9865029   -1.0369291  0.075233015   -1.9865029   0.94957383   507524 
   36000    1.0421891   -1.9859142   -1.9859142   -1.0376758   0.07594143   -1.9859142   0.94823838   507524 
   37000    1.0415203   -1.9847568   -1.9847568   -1.0371269   0.05824264   -1.9847568    0.9476299   507524 
   38000    1.0387417   -1.9823211   -1.9823211   -1.0372194  0.079044935   -1.9823211   0.94510175   507524 
   39000    1.0397596   -1.9843459   -1.9843459    -1.038318  0.081799921   -1.9843459    0.9460279   507524 
   40000     1.039966   -1.9845224   -1.9845224   -1.0383067  0.065855037   -1.9845224   0.94621573   507524 
   41000    1.0393356   -1.9836258   -1.9836258   -1.0379837  0.066029473   -1.9836258   0.94564216   507524 
   42000    1.0386361   -1.9846069   -1.9846069   -1.0396013  0.065394358   -1.9846069   0.94500565   507524 
   43000    1.0393676   -1.9858101   -1.9858101   -1.0401388  0.069829306   -1.9858101   0.94567129   507524 
   44000     1.038764   -1.9861145   -1.9861145   -1.0409924  0.076378399   -1.9861145   0.94512207   507524 
   45000    1.0388756   -1.9855668   -1.9855668   -1.0403432  0.067283966   -1.9855668   0.94522361   507524 
   46000    1.0404154   -1.9882138   -1.9882138   -1.0415892   0.07172537   -1.9882138   0.94662457   507524 
   47000    1.0357468   -1.9840873   -1.9840873   -1.0417104  0.071076451   -1.9840873   0.94237682   507524 
   48000    1.0390013    -1.985746    -1.985746    -1.040408  0.064180018    -1.985746   0.94533795   507524 
   49000     1.037082   -1.9847488   -1.9847488   -1.0411571  0.058419866   -1.9847488   0.94359166   507524 
   50000    1.0347506    -1.982981    -1.982981   -1.0415106  0.058927217    -1.982981   0.94147045   507524 
   51000    1.0362959   -1.9841379   -1.9841379   -1.0412614  0.069464875   -1.9841379   0.94287648   507524 
   52000    1.0374668   -1.9841412   -1.9841412   -1.0401994   0.05893257   -1.9841412   0.94394177   507524 
   53000    1.0365153   -1.9836184   -1.9836184   -1.0405423  0.065517217   -1.9836184   0.94307603   507524 
   54000    1.0357963   -1.9832568   -1.9832568   -1.0408349  0.066955934   -1.9832568   0.94242187   507524 
   55000     1.036003   -1.9836579   -1.9836579    -1.041048  0.068309608   -1.9836579   0.94260996   507524 
   56000    1.0357701   -1.9831404   -1.9831404   -1.0407424  0.077713898   -1.9831404   0.94239803   507524 
   57000     1.037327    -1.985306    -1.985306   -1.0414914  0.072209483    -1.985306   0.94381464   507524 
   58000    1.0362401   -1.9850268   -1.9850268   -1.0422011  0.072438776   -1.9850268   0.94282567   507524 
   59000    1.0359555   -1.9854073   -1.9854073   -1.0428405  0.058130033   -1.9854073   0.94256678   507524 
   60000     1.036176   -1.9863975   -1.9863975   -1.0436302  0.066256488   -1.9863975   0.94276736   507524 
   61000     1.035561   -1.9857953   -1.9857953   -1.0435875  0.085108725   -1.9857953   0.94220781   507524 
   62000    1.0383013   -1.9887699   -1.9887699   -1.0440688  0.080819519   -1.9887699    0.9447011   507524 
   63000    1.0369446   -1.9876109   -1.9876109   -1.0441441   0.07772709   -1.9876109   0.94346672   507524 
   64000    1.0395679   -1.9906437   -1.9906437   -1.0447903  0.073039107   -1.9906437   0.94585346   507524 
   65000    1.0373346    -1.988603    -1.988603   -1.0447815  0.076815278    -1.988603   0.94382148   507524 
   66000    1.0381174   -1.9903887   -1.9903887   -1.0458549  0.077218949   -1.9903887    0.9445338   507524 
   67000     1.038313   -1.9911089   -1.9911089   -1.0463972  0.071702886   -1.9911089    0.9447117   507524 
   68000    1.0372545   -1.9904144   -1.9904144   -1.0466658  0.079853106   -1.9904144   0.94374862   507524 
   69000    1.0373953   -1.9905314   -1.9905314   -1.0466546   0.08014139   -1.9905314   0.94387679   507524 
   70000     1.038054   -1.9912297   -1.9912297   -1.0467537  0.073525767   -1.9912297   0.94447606   507524 
   71000    1.0395393   -1.9933615   -1.9933615   -1.0475341  0.075485828   -1.9933615   0.94582745   507524 
   72000     1.036692   -1.9918212   -1.9918212   -1.0485843  0.076322442   -1.9918212   0.94323681   507524 
   73000    1.0379779   -1.9929907   -1.9929907   -1.0485839  0.075241129   -1.9929907    0.9444068   507524 
   74000    1.0365958   -1.9919022   -1.9919022   -1.0487528   0.06437296   -1.9919022   0.94314932   507524 
   75000    1.0392787   -1.9932438   -1.9932438   -1.0476534  0.089178939   -1.9932438    0.9455904   507524 
   76000    1.0404608   -1.9941614   -1.9941614   -1.0474955  0.065219897   -1.9941614   0.94666588   507524 
   77000    1.0372694    -1.991854    -1.991854   -1.0480918  0.074528627    -1.991854   0.94376219   507524 
   78000    1.0377629    -1.992297    -1.992297   -1.0480857  0.080534566    -1.992297   0.94421122   507524 
   79000    1.0379431   -1.9932737   -1.9932737   -1.0488986  0.078292396   -1.9932737   0.94437519   507524 
   80000    1.0377792   -1.9933024   -1.9933024   -1.0490763  0.080664239   -1.9933024   0.94422602   507524 
   81000    1.0378575   -1.9927616   -1.9927616   -1.0484643    0.0799045   -1.9927616    0.9442973   507524 
   82000    1.0385259   -1.9931244   -1.9931244    -1.048219  0.068296216   -1.9931244   0.94490545   507524 
   83000    1.0379997   -1.9936411   -1.9936411   -1.0492145  0.073195824   -1.9936411   0.94442666   507524 
   84000    1.0349518   -1.9918872   -1.9918872   -1.0502338  0.071276986   -1.9918872   0.94165348   507524 
   85000    1.0364564   -1.9924756   -1.9924756   -1.0494531  0.068081963   -1.9924756    0.9430225   507524 
   86000     1.035981   -1.9928732   -1.9928732   -1.0502833  0.073630196   -1.9928732   0.94258992   507524 
   87000    1.0356886   -1.9926576   -1.9926576   -1.0503337  0.074848425   -1.9926576    0.9423239   507524 
   88000    1.0370038   -1.9938806   -1.9938806   -1.0503601  0.069404515   -1.9938806   0.94352054   507524 
   89000    1.0338876   -1.9921029   -1.9921029   -1.0514176   0.07114782   -1.9921029   0.94068527   507524 
   90000    1.0361998   -1.9947699   -1.9947699   -1.0519809  0.073779665   -1.9947699   0.94278898   507524 
   91000    1.0359787    -1.994035    -1.994035   -1.0514472   0.06821941    -1.994035   0.94258782   507524 
   92000     1.035228   -1.9933074   -1.9933074   -1.0514026  0.078116155   -1.9933074   0.94190482   507524 
   93000    1.0345526   -1.9927814   -1.9927814   -1.0514911  0.071557871   -1.9927814   0.94129033   507524 
   94000    1.0356505   -1.9937151   -1.9937151   -1.0514258  0.066684396   -1.9937151   0.94228926   507524 
   95000    1.0360319    -1.994477    -1.994477   -1.0518407   0.07131469    -1.994477   0.94263626   507524 
   96000    1.0336104   -1.9921567   -1.9921567   -1.0517237  0.073669818   -1.9921567   0.94043308   507524 
   97000    1.0362208   -1.9946476   -1.9946476   -1.0518394  0.065404349   -1.9946476   0.94280815   507524 
   98000    1.0394666   -1.9976342   -1.9976342    -1.051873    0.0804513   -1.9976342   0.94576128   507524 
   99000    1.0375705   -1.9959545   -1.9959545   -1.0519183  0.067090217   -1.9959545   0.94403619   507524 
  100000    1.0361834   -1.9958939   -1.9958939   -1.0531198  0.069508636   -1.9958939   0.94277411   507524 
  101000    1.0368653   -1.9970541   -1.9970541   -1.0536596  0.063949695   -1.9970541   0.94339455   507524 
  102000     1.036528   -1.9965138   -1.9965138   -1.0534262  0.078570959   -1.9965138   0.94308759   507524 
  103000    1.0361516   -1.9956404   -1.9956404   -1.0528952  0.077074313   -1.9956404   0.94274517   507524 
  104000    1.0374497   -1.9967596   -1.9967596   -1.0528334  0.075379851   -1.9967596   0.94392622   507524 
  105000    1.0382171   -1.9985945   -1.9985945     -1.05397  0.077550894   -1.9985945   0.94462449   507524 
  106000    1.0364115   -1.9972062   -1.9972062   -1.0542246   0.07361448   -1.9972062   0.94298165   507524 
  107000    1.0358011   -1.9973181   -1.9973181   -1.0548919  0.070023269   -1.9973181   0.94242623   507524 
  108000    1.0354892   -1.9973188   -1.9973188   -1.0551764  0.065056281   -1.9973188   0.94214243   507524 
  109000    1.0382336   -1.9995182   -1.9995182   -1.0548787  0.067951777   -1.9995182   0.94463952   507524 
  110000    1.0366117   -1.9982034   -1.9982034   -1.0550396   0.06960591   -1.9982034   0.94316381   507524 
  111000      1.03901   -1.9992226   -1.9992226   -1.0538767  0.079027788   -1.9992226    0.9453459   507524 
  112000    1.0369703   -1.9975895   -1.9975895   -1.0540994  0.077568604   -1.9975895   0.94349006   507524 
  113000     1.036347   -1.9980509   -1.9980509   -1.0551279  0.072429551   -1.9980509   0.94292293   507524 
  114000    1.0376955   -1.9980392   -1.9980392   -1.0538893  0.074724419   -1.9980392   0.94414984   507524 
  115000    1.0377359   -1.9989395   -1.9989395   -1.0547529  0.087169812   -1.9989395    0.9441866   507524 
  116000     1.037368   -1.9994628   -1.9994628   -1.0556109  0.070043647   -1.9994628   0.94385192   507524 
  117000    1.0351927   -1.9970526   -1.9970526   -1.0551799  0.085597714   -1.9970526   0.94187267   507524 
  118000     1.034877   -1.9965934   -1.9965934    -1.055008  0.069454779   -1.9965934   0.94158546   507524 
  119000    1.0357657   -1.9981107   -1.9981107   -1.0557166  0.071163274   -1.9981107   0.94239407   507524 
  120000    1.0349827   -1.9977003   -1.9977003   -1.0560186  0.081071153   -1.9977003   0.94168168   507524 
  121000    1.0373668     -1.99939     -1.99939   -1.0555392  0.079093033     -1.99939   0.94385082   507524 
  122000    1.0348619   -1.9987015   -1.9987015   -1.0571298  0.075312036   -1.9987015   0.94157172   507524 
  123000    1.0354006   -1.9984871   -1.9984871   -1.0564253  0.068845484   -1.9984871   0.94206182   507524 
  124000    1.0352779   -1.9979647   -1.9979647   -1.0560145  0.068579343   -1.9979647   0.94195026   507524 
  125000    1.0378792   -2.0006905   -2.0006905   -1.0563734   0.06896238   -2.0006905   0.94431706   507524 
  126000    1.0363163   -2.0002106   -2.0002106   -1.0573155   0.07225284   -2.0002106   0.94289506   507524 
  127000    1.0342271   -1.9987869   -1.9987869   -1.0577928  0.074010002   -1.9987869   0.94099418   507524 
  128000    1.0367219   -2.0006444   -2.0006444   -1.0573803  0.064066359   -2.0006444   0.94326406   507524 
  129000    1.0355491   -1.9997985   -1.9997985   -1.0576015  0.071924133   -1.9997985   0.94219698   507524 
  130000    1.0362873   -2.0002264   -2.0002264   -1.0573577  0.062571849   -2.0002264   0.94286867   507524 
  131000    1.0370668   -2.0008977   -2.0008977   -1.0573199  0.083489566   -2.0008977   0.94357788   507524 
  132000    1.0346861   -1.9987136   -1.9987136   -1.0573019   0.07220084   -1.9987136   0.94141175   507524 
  133000     1.035954   -1.9997733   -1.9997733    -1.057208  0.076232223   -1.9997733   0.94256539   507524 
  134000    1.0363307   -2.0003806   -2.0003806   -1.0574725  0.071407944   -2.0003806   0.94290809   507524 
  135000    1.0353573   -1.9999877   -1.9999877   -1.0579653  0.076992622   -1.9999877   0.94202243   507524 
  136000     1.035964   -1.9997351   -1.9997351   -1.0571606  0.083211755   -1.9997351   0.94257451   507524 
  137000    1.0373951   -2.0021517   -2.0021517   -1.0582751  0.070994759   -2.0021517   0.94387655   507524 
  138000    1.0354286   -2.0008107   -2.0008107   -1.0587233  0.079511419   -2.0008107   0.94208738   507524 
  139000    1.0371113   -2.0022691   -2.0022691   -1.0586507  0.081394349   -2.0022691   0.94361839   507524 
  140000    1.0378498   -2.0031223   -2.0031223    -1.058832  0.066992109   -2.0031223   0.94429026   507524 
  141000    1.0367738   -2.0037046   -2.0037046   -1.0603933  0.070518308   -2.0037046   0.94331128   507524 
  142000     1.036475   -2.0032906   -2.0032906   -1.0602511  0.069466803   -2.0032906   0.94303946   507524 
  143000    1.0340925   -2.0024522   -2.0024522   -1.0615805  0.075502204   -2.0024522   0.94087168   507524 
  144000     1.031566   -2.0000926   -2.0000926   -1.0615196  0.077620141   -2.0000926   0.93857298   507524 
  145000    1.0347274   -2.0037707   -2.0037707   -1.0623213  0.070477752   -2.0037707   0.94144933   507524 
  146000    1.0333901   -2.0038329   -2.0038329   -1.0636002  0.069012593   -2.0038329   0.94023265   507524 
  147000    1.0359746   -2.0054588   -2.0054588   -1.0628746  0.064816869   -2.0054588   0.94258414   507524 
  148000    1.0336025   -2.0033587   -2.0033587   -1.0629329  0.074648306   -2.0033587   0.94042587   507524 
  149000    1.0343374   -2.0025926   -2.0025926   -1.0614981  0.076100894   -2.0025926    0.9410945   507524 
  150000    1.0340603    -2.002992    -2.002992   -1.0621496  0.075867002    -2.002992   0.94084237   507524 
  151000    1.0383538   -2.0060884   -2.0060884   -1.0613395  0.064373186   -2.0060884   0.94474884   507524 
  152000    1.0367951     -2.00342     -2.00342   -1.0600894  0.081107265     -2.00342   0.94333063   507524 
  153000    1.0365636   -2.0042277   -2.0042277   -1.0611077  0.074397169   -2.0042277   0.94312005   507524 
  154000    1.0367518   -2.0032691   -2.0032691   -1.0599779  0.088152647   -2.0032691   0.94329128   507524 
  155000    1.0376047   -2.0042727   -2.0042727   -1.0602054  0.080446396   -2.0042727   0.94406728   507524 
  156000    1.0370935   -2.0049585   -2.0049585   -1.0613564  0.071539094   -2.0049585   0.94360211   507524 
  157000     1.037254   -2.0058562   -2.0058562    -1.062108  0.078516083   -2.0058562   0.94374818   507524 
  158000    1.0360626   -2.0056498   -2.0056498   -1.0629856  0.076864422   -2.0056498   0.94266419   507524 
  159000    1.0352938   -2.0050723   -2.0050723   -1.0631076  0.073114169   -2.0050723   0.94196467   507524 
  160000    1.0348082   -2.0049038   -2.0049038    -1.063381  0.079414947   -2.0049038   0.94152286   507524 
  161000     1.036246   -2.0054891   -2.0054891   -1.0626581  0.057264461   -2.0054891   0.94283104   507524 
  162000    1.0376178   -2.0076518   -2.0076518   -1.0635726  0.072716755   -2.0076518   0.94407915   507524 
  163000    1.0335668   -2.0046055   -2.0046055   -1.0642121  0.065216812   -2.0046055   0.94039338   507524 
  164000    1.0356493   -2.0056103   -2.0056103   -1.0633221  0.064628116   -2.0056103   0.94228816   507524 
  165000    1.0366018   -2.0060795   -2.0060795   -1.0629247  0.067229023   -2.0060795   0.94315475   507524 
  166000      1.03522   -2.0060972   -2.0060972   -1.0641997  0.076640675   -2.0060972    0.9418975   507524 
  167000    1.0327108   -2.0038804   -2.0038804   -1.0642659  0.070186965   -2.0038804   0.93961456   507524 
  168000    1.0346328   -2.0054178   -2.0054178   -1.0640545  0.065749061   -2.0054178    0.9413633   507524 
  169000     1.033579   -2.0045138   -2.0045138   -1.0641093   0.07127108   -2.0045138   0.94040452   507524 
  170000    1.0349905   -2.0049863   -2.0049863   -1.0632976  0.078326055   -2.0049863    0.9416887   507524 
  171000    1.0354443   -2.0050862   -2.0050862   -1.0629846  0.070360421   -2.0050862    0.9421016   507524 
  172000    1.0331829   -2.0043528   -2.0043528   -1.0643087  0.072273162   -2.0043528   0.94004409   507524 
  173000    1.0332029   -2.0048701   -2.0048701   -1.0648079  0.062481633   -2.0048701   0.94006224   507524 
  174000    1.0322375   -2.0045531   -2.0045531   -1.0653692   0.06453946   -2.0045531   0.93918387   507524 
  175000    1.0330465   -2.0048302   -2.0048302   -1.0649102   0.06509877   -2.0048302   0.93991999   507524 
  176000     1.033684   -2.0063833   -2.0063833   -1.0658833  0.072942968   -2.0063833   0.94050003   507524 
  177000    1.0326015   -2.0056008   -2.0056008   -1.0660856  0.077395769   -2.0056008   0.93951513   507524 
  178000    1.0347801   -2.0072409   -2.0072409   -1.0657436  0.080477713   -2.0072409   0.94149728   507524 
  179000    1.0355583   -2.0068946   -2.0068946   -1.0646892  0.071359255   -2.0068946   0.94220533   507524 
  180000    1.0353177   -2.0070416   -2.0070416   -1.0650552  0.077767514   -2.0070416   0.94198643   507524 
  181000     1.035694   -2.0079566   -2.0079566   -1.0656279  0.074835427   -2.0079566   0.94232877   507524 
  182000    1.0343293   -2.0082672   -2.0082672   -1.0671801  0.065027918   -2.0082672   0.94108712   507524 
  183000    1.0356121   -2.0080017   -2.0080017   -1.0657474  0.069383478   -2.0080017   0.94225425   507524 
  184000    1.0345984   -2.0064203   -2.0064203   -1.0650883  0.074974006   -2.0064203   0.94133196   507524 
  185000    1.0364382     -2.00915     -2.00915    -1.066144  0.067244301     -2.00915   0.94300597   507524 
  186000    1.0352338   -2.0080084   -2.0080084   -1.0660983  0.077266633   -2.0080084   0.94191009   507524 
  187000    1.0350047   -2.0091197   -2.0091197   -1.0674181   0.07848217   -2.0091197   0.94170165   507524 
  188000    1.0369906   -2.0103856   -2.0103856    -1.066877  0.077175696   -2.0103856   0.94350857   507524 
  189000    1.0359158   -2.0102204   -2.0102204   -1.0676898  0.070785116   -2.0102204   0.94253059   507524 
  190000    1.0348629   -2.0097731   -2.0097731   -1.0682005  0.072810394   -2.0097731   0.94157263   507524 
  191000    1.0353752   -2.0092482   -2.0092482   -1.0672094  0.073927698   -2.0092482   0.94203877   507524 
  192000    1.0361826   -2.0101811   -2.0101811   -1.0674077  0.085762669   -2.0101811   0.94277338   507524 
  193000    1.0353993   -2.0108166   -2.0108166   -1.0687559  0.076282644   -2.0108166   0.94206066   507524 
  194000    1.0335049   -2.0096989   -2.0096989   -1.0693618  0.074972426   -2.0096989   0.94033709   507524 
  195000    1.0343734   -2.0107612   -2.0107612   -1.0696339  0.084354266   -2.0107612   0.94112731   507524 
  196000    1.0344673   -2.0108131   -2.0108131   -1.0696004  0.067587899   -2.0108131   0.94121274   507524 
  197000    1.0334787   -2.0104065   -2.0104065   -1.0700933  0.076487674   -2.0104065   0.94031324   507524 
  198000    1.0346992   -2.0118314   -2.0118314   -1.0704077  0.066339721   -2.0118314   0.94142372   507524 
  199000    1.0323405   -2.0093018   -2.0093018   -1.0700242  0.074672638   -2.0093018    0.9392776   507524 
  200000    1.0341083   -2.0120328   -2.0120328   -1.0711467  0.067576883   -2.0120328    0.9408861   507524 
  201000     1.032981   -2.0110048   -2.0110048   -1.0711444  0.077336026   -2.0110048   0.93986038   507524 
  202000    1.0331286    -2.011399    -2.011399   -1.0714044  0.079349135    -2.011399   0.93999467   507524 
  203000     1.036833   -2.0131956   -2.0131956   -1.0698304  0.076107617   -2.0131956   0.94336518   507524 
  204000    1.0358022   -2.0127947   -2.0127947   -1.0703674  0.075360075   -2.0127947    0.9424273   507524 
  205000    1.0342062   -2.0108285   -2.0108285   -1.0698534  0.073401598   -2.0108285    0.9409751   507524 
  206000    1.0344089   -2.0110968   -2.0110968   -1.0699372  0.078247912   -2.0110968    0.9411596   507524 
  207000    1.0351119   -2.0119273   -2.0119273   -1.0701281  0.081898178   -2.0119273   0.94179916   507524 
  208000    1.0343207   -2.0120912   -2.0120912   -1.0710119  0.066586678   -2.0120912   0.94107933   507524 
  209000    1.0322731   -2.0104071   -2.0104071   -1.0711908  0.074209012   -2.0104071   0.93921628   507524 
  210000    1.0317507   -2.0112483   -2.0112483   -1.0725073  0.068882654   -2.0112483   0.93874095   507524 
  211000    1.0323743   -2.0122518   -2.0122518   -1.0729435  0.068202843   -2.0122518   0.93930836   507524 
  212000    1.0341505   -2.0128474   -2.0128474   -1.0719229  0.062202669   -2.0128474   0.94092449   507524 
  213000    1.0327454     -2.01134     -2.01134    -1.071694  0.070357342     -2.01134   0.93964604   507524 
  214000    1.0318442   -2.0113251   -2.0113251   -1.0724991  0.076341034   -2.0113251   0.93882604   507524 
  215000    1.0321157   -2.0122537   -2.0122537   -1.0731806  0.068697927   -2.0122537   0.93907311   507524 
  216000    1.0322704   -2.0121417   -2.0121417   -1.0729278  0.069779829   -2.0121417   0.93921385   507524 
  217000    1.0322534   -2.0116036   -2.0116036   -1.0724052    0.0703809   -2.0116036   0.93919838   507524 
  218000     1.031725   -2.0118176   -2.0118176   -1.0730999   0.07366199   -2.0118176   0.93871764   507524 
  219000    1.0313347   -2.0121463   -2.0121463   -1.0737837  0.072735662   -2.0121463   0.93836253   507524 
  220000    1.0337105   -2.0139312   -2.0139312   -1.0734071  0.071984541   -2.0139312   0.94052416   507524 
  221000    1.0330947   -2.0135143   -2.0135143   -1.0735504  0.073903368   -2.0135143   0.93996381   507524 
  222000     1.032704   -2.0132335   -2.0132335   -1.0736252  0.064189339   -2.0132335   0.93960839   507524 
  223000    1.0345221   -2.0137444   -2.0137444   -1.0724818  0.073573232   -2.0137444   0.94126258   507524 
  224000    1.0336141   -2.0132275   -2.0132275   -1.0727911  0.073861772   -2.0132275   0.94043637   507524 
  225000    1.0335145   -2.0138215   -2.0138215   -1.0734757  0.072830906   -2.0138215   0.94034579   507524 
  226000    1.0328487   -2.0131737   -2.0131737   -1.0734337  0.086057421   -2.0131737   0.93973997   507524 
  227000    1.0343319   -2.0147486   -2.0147486   -1.0736591  0.077655667   -2.0147486   0.94108949   507524 
  228000     1.034024   -2.0146463   -2.0146463    -1.073837  0.071826093   -2.0146463   0.94080935   507524 
  229000    1.0327289   -2.0151314   -2.0151314   -1.0755004  0.067378165   -2.0151314   0.93963101   507524 
  230000      1.03324   -2.0154258   -2.0154258   -1.0753298  0.060525612   -2.0154258   0.94009599   507524 
  231000    1.0344089   -2.0165598   -2.0165598   -1.0754002  0.066169538   -2.0165598    0.9411596   507524 
  232000    1.0299654   -2.0128195   -2.0128195   -1.0757028  0.077140891   -2.0128195   0.93711667   507524 
  233000    1.0333696   -2.0161578   -2.0161578   -1.0759438  0.068527731   -2.0161578   0.94021399   507524 
  234000    1.0318784   -2.0144478   -2.0144478   -1.0755906  0.079407444   -2.0144478   0.93885722   507524 
  235000    1.0335965   -2.0158243   -2.0158243   -1.0754039  0.073753927   -2.0158243   0.94042039   507524 
  236000    1.0339479   -2.0154943   -2.0154943   -1.0747541  0.079898697   -2.0154943   0.94074015   507524 
  237000    1.0345805   -2.0164823   -2.0164823   -1.0751666   0.07383805   -2.0164823   0.94131572   507524 
  238000    1.0347391   -2.0160007   -2.0160007   -1.0745407  0.062931363   -2.0160007   0.94146001   507524 
  239000    1.0369746   -2.0185846   -2.0185846   -1.0750906  0.075778437   -2.0185846   0.94349401   507524 
  240000    1.0350052     -2.01702     -2.01702   -1.0753179  0.075021259     -2.01702   0.94170208   507524 
  241000     1.034492   -2.0173549   -2.0173549   -1.0761197  0.074727695   -2.0173549   0.94123519   507524 
  242000    1.0349045   -2.0183605   -2.0183605     -1.07675  0.083443278   -2.0183605   0.94161049   507524 
  243000    1.0332629   -2.0169855   -2.0169855   -1.0768686  0.066679059   -2.0169855   0.94011688   507524 
  244000    1.0327727   -2.0168524   -2.0168524   -1.0771816  0.086376457   -2.0168524   0.93967089   507524 
  245000    1.0320276   -2.0162549   -2.0162549    -1.077262  0.081233227   -2.0162549   0.93899294   507524 
  246000    1.0326417   -2.0168119   -2.0168119   -1.0772602  0.072568998   -2.0168119   0.93955166   507524 
  247000    1.0321094   -2.0170714   -2.0170714    -1.078004  0.077941872   -2.0170714   0.93906735   507524 
  248000    1.0327682   -2.0176041   -2.0176041   -1.0779373  0.076831545   -2.0176041   0.93966677   507524 
  249000    1.0319474    -2.018369    -2.018369    -1.079449  0.071523601    -2.018369      0.93892   507524 
  250000    1.0320248   -2.0179926   -2.0179926   -1.0790021  0.070578559   -2.0179926   0.93899042   507524 
  251000    1.0337287   -2.0183837   -2.0183837    -1.077843  0.079748318   -2.0183837   0.94054072   507524 
  252000    1.0332902   -2.0182436   -2.0182436   -1.0781019   0.07029873   -2.0182436   0.94014167   507524 
  253000    1.0331942   -2.0180387   -2.0180387   -1.0779844  0.082238617   -2.0180387   0.94005432   507524 
  254000    1.0324667   -2.0180854   -2.0180854    -1.078693  0.064817981   -2.0180854   0.93939245   507524 
  255000    1.0295059    -2.016094    -2.016094   -1.0793955  0.077996024    -2.016094   0.93669852   507524 
  256000    1.0310932   -2.0176038   -2.0176038   -1.0794611  0.074116661   -2.0176038   0.93814275   507524 
  257000    1.0295665   -2.0158233   -2.0158233   -1.0790696  0.088460666   -2.0158233   0.93675373   507524 
  258000    1.0329568   -2.0187252   -2.0187252   -1.0788868  0.066694772   -2.0187252    0.9398384   507524 
  259000    1.0322375   -2.0182951   -2.0182951   -1.0791112  0.076679584   -2.0182951   0.93918388   507524 
  260000    1.0316805   -2.0185246   -2.0185246   -1.0798475    0.0673854   -2.0185246   0.93867709   507524 
  261000    1.0311918   -2.0193734   -2.0193734    -1.081141  0.073252551   -2.0193734   0.93823245   507524 
  262000    1.0311905   -2.0186094   -2.0186094   -1.0803781  0.071968417   -2.0186094   0.93823125   507524 
  263000    1.0319091   -2.0197744   -2.0197744   -1.0808893  0.079885582   -2.0197744   0.93888511   507524 
  264000    1.0319812   -2.0194191   -2.0194191   -1.0804683   0.08341906   -2.0194191   0.93895075   507524 
  265000    1.0317242   -2.0193028   -2.0193028   -1.0805859  0.077085942   -2.0193028    0.9387169   507524 
  266000    1.0324764   -2.0203566   -2.0203566   -1.0809554   0.07094029   -2.0203566   0.93940128   507524 
  267000    1.0321505   -2.0200466   -2.0200466   -1.0809419  0.067269759   -2.0200466   0.93910478   507524 
  268000    1.0321209   -2.0202997   -2.0202997   -1.0812219  0.080963308   -2.0202997   0.93907782   507524 
  269000    1.0345254   -2.0215755   -2.0215755   -1.0803099  0.073823623   -2.0215755   0.94126555   507524 
  270000    1.0323766   -2.0199327   -2.0199327   -1.0806222  0.076248821   -2.0199327   0.93931051   507524 
  271000    1.0353177    -2.023057    -2.023057   -1.0810706  0.075939107    -2.023057   0.94198646   507524 
  272000    1.0344818   -2.0220948   -2.0220948   -1.0808689  0.070711801   -2.0220948   0.94122592   507524 
  273000     1.034886   -2.0228107   -2.0228107    -1.081217  0.077062145   -2.0228107   0.94159367   507524 
  274000    1.0349528   -2.0217445   -2.0217445   -1.0800901  0.078869919   -2.0217445   0.94165445   507524 
  275000    1.0327413   -2.0210065   -2.0210065   -1.0813642  0.079972751   -2.0210065   0.93964227   507524 
  276000    1.0324619   -2.0210244   -2.0210244   -1.0816363  0.080325539   -2.0210244   0.93938808   507524 
  277000    1.0340046   -2.0218891   -2.0218891   -1.0810974  0.076410172   -2.0218891   0.94079174   507524 
  278000    1.0333172   -2.0219291   -2.0219291   -1.0817629  0.082108988   -2.0219291   0.94016624   507524 
  279000    1.0329932    -2.021452    -2.021452   -1.0815805  0.071215342    -2.021452   0.93987148   507524 
  280000    1.0346018   -2.0236538   -2.0236538   -1.0823187  0.091603807   -2.0236538   0.94133508   507524 
  281000    1.0324917   -2.0218107   -2.0218107   -1.0823956  0.074121432   -2.0218107   0.93941515   507524 
  282000    1.0329107   -2.0229671   -2.0229671   -1.0831707   0.06924379   -2.0229671   0.93979641   507524 
  283000    1.0315315   -2.0216134   -2.0216134   -1.0830718   0.07522411   -2.0216134   0.93854156   507524 
  284000    1.0310227    -2.021102    -2.021102   -1.0830234  0.067664953    -2.021102   0.93807867   507524 
  285000    1.0316142   -2.0206367   -2.0206367     -1.08202  0.077645916   -2.0206367   0.93861676   507524 
  286000    1.0302691   -2.0202847   -2.0202847   -1.0828918  0.074459865   -2.0202847   0.93739295   507524 
  287000    1.0305867    -2.020109    -2.020109   -1.0824271  0.072553184    -2.020109   0.93768192   507524 
  288000    1.0290097   -2.0193758   -2.0193758   -1.0831287   0.07635205   -2.0193758   0.93624707   507524 
  289000    1.0306681    -2.020524    -2.020524    -1.082768  0.081439932    -2.020524     0.937756   507524 
  290000    1.0299203   -2.0206087   -2.0206087   -1.0835331  0.075550612   -2.0206087    0.9370756   507524 
  291000    1.0314934    -2.021215    -2.021215   -1.0827081  0.071097169    -2.021215   0.93850685   507524 
  292000    1.0300781   -2.0198542   -2.0198542    -1.082635  0.063207397   -2.0198542   0.93721921   507524 
  293000    1.0281639   -2.0182696   -2.0182696    -1.082792  0.072328583   -2.0182696   0.93547756   507524 
  294000    1.0308057   -2.0199676   -2.0199676   -1.0820864  0.080180426   -2.0199676   0.93788117   507524 
  295000    1.0315602   -2.0201639   -2.0201639   -1.0815962  0.067671246   -2.0201639   0.93856763   507524 
  296000    1.0294488   -2.0191926   -2.0191926   -1.0825461  0.068999741   -2.0191926   0.93664656   507524 
  297000    1.0311139   -2.0205416   -2.0205416     -1.08238  0.071008465   -2.0205416   0.93816164   507524 
  298000     1.032014   -2.0206719   -2.0206719   -1.0816913  0.056966789   -2.0206719   0.93898054   507524 
  299000    1.0294703   -2.0186987   -2.0186987   -1.0820326  0.068209578   -2.0186987   0.93666616   507524 
  300000    1.0318775   -2.0216046   -2.0216046   -1.0827482  0.061506635   -2.0216046   0.93885635   507524 
  301000    1.0318404   -2.0217411   -2.0217411   -1.0829185  0.070656425   -2.0217411   0.93882264   507524 
  302000    1.0309284   -2.0214838   -2.0214838    -1.083491  0.063153892   -2.0214838   0.93799283   507524 
  303000    1.0303915   -2.0210586   -2.0210586   -1.0835543   0.07151328   -2.0210586   0.93750429   507524 
  304000    1.0303528   -2.0208758   -2.0208758   -1.0834066  0.069769122   -2.0208758   0.93746914   507524 
  305000    1.0328447   -2.0223237   -2.0223237   -1.0825873  0.070207107   -2.0223237   0.93973635   507524 
  306000    1.0327206    -2.022272    -2.022272   -1.0826486   0.08274644    -2.022272   0.93962343   507524 
  307000    1.0346788   -2.0237546   -2.0237546   -1.0823495  0.080142778   -2.0237546    0.9414051   507524 
  308000    1.0327316   -2.0221536   -2.0221536   -1.0825201  0.078182454   -2.0221536   0.93963349   507524 
  309000    1.0338747   -2.0232268   -2.0232268   -1.0825533  0.085906937   -2.0232268   0.94067351   507524 
  310000    1.0354274   -2.0246358   -2.0246358   -1.0825495  0.084942445   -2.0246358   0.94208629   507524 
  311000    1.0350664   -2.0253292   -2.0253292   -1.0835714  0.075689273   -2.0253292   0.94175783   507524 
  312000     1.035686   -2.0255863   -2.0255863   -1.0832648   0.06952023   -2.0255863   0.94232154   507524 
  313000    1.0360082   -2.0260505   -2.0260505   -1.0834358  0.081638037   -2.0260505   0.94261466   507524 
  314000    1.0349549   -2.0246134   -2.0246134    -1.082957  0.077071188   -2.0246134   0.94165634   507524 
  315000    1.0340182   -2.0246744   -2.0246744   -1.0838703  0.083846375   -2.0246744   0.94080409   507524 
  316000    1.0355348   -2.0257258   -2.0257258   -1.0835419  0.067863151   -2.0257258   0.94218394   507524 
  317000    1.0351517   -2.0258459   -2.0258459   -1.0840105  0.087052486   -2.0258459   0.94183538   507524 
  318000    1.0340148   -2.0245645   -2.0245645   -1.0837634  0.067974637   -2.0245645   0.94080102   507524 
  319000    1.0332908   -2.0247497   -2.0247497   -1.0846075  0.078553526   -2.0247497   0.94014223   507524 
  320000    1.0339028   -2.0252158   -2.0252158   -1.0845168  0.089063775   -2.0252158   0.94069905   507524 
  321000    1.0324954   -2.0241951   -2.0241951   -1.0847766  0.075470262   -2.0241951   0.93941854   507524 
  322000    1.0331894   -2.0244405   -2.0244405   -1.0843905   0.08143458   -2.0244405   0.94004998   507524 
  323000    1.0319763   -2.0236087   -2.0236087   -1.0846624  0.075601143   -2.0236087    0.9389463   507524 
  324000    1.0317905   -2.0246366   -2.0246366   -1.0858594  0.065965902   -2.0246366   0.93877725   507524 
  325000    1.0318141   -2.0241219   -2.0241219   -1.0853232  0.064500698   -2.0241219   0.93879871   507524 
  326000    1.0286682   -2.0215905   -2.0215905   -1.0856541  0.066966225   -2.0215905   0.93593636   507524 
  327000    1.0306379   -2.0223159   -2.0223159   -1.0845874  0.074343496   -2.0223159   0.93772849   507524 
  328000    1.0293703   -2.0212033   -2.0212033   -1.0846282  0.072261148   -2.0212033   0.93657517   507524 
  329000    1.0308502   -2.0222101   -2.0222101   -1.0842884   0.07182452   -2.0222101   0.93792171   507524 
  330000    1.0291997   -2.0213427   -2.0213427   -1.0849228  0.070472484   -2.0213427   0.93641996   507524 
  331000    1.0284199    -2.021858    -2.021858   -1.0861475  0.069304092    -2.021858   0.93571044   507524 
  332000    1.0312276   -2.0232576   -2.0232576   -1.0849925  0.069597414   -2.0232576   0.93826509   507524 
  333000    1.0323067   -2.0243594   -2.0243594   -1.0851125   0.06250004   -2.0243594    0.9392469   507524 
  334000    1.0298409   -2.0224633   -2.0224633   -1.0854599  0.074404144   -2.0224633   0.93700336   507524 
  335000    1.0298206   -2.0223907   -2.0223907   -1.0854059  0.078206187   -2.0223907   0.93698487   507524 
  336000    1.0316141   -2.0240116   -2.0240116   -1.0853949  0.082913449   -2.0240116   0.93861671   507524 
  337000    1.0326559   -2.0259982   -2.0259982   -1.0864337  0.067639347   -2.0259982   0.93956456   507524 
  338000    1.0298789   -2.0242907   -2.0242907   -1.0872528    0.0711106   -2.0242907    0.9370379   507524 
  339000       1.0335   -2.0268448   -2.0268448   -1.0865122  0.082273399   -2.0268448   0.94033261   507524 
  340000     1.031093   -2.0246716   -2.0246716   -1.0865291  0.083441588   -2.0246716   0.93814256   507524 
  341000    1.0316977   -2.0246779   -2.0246779   -1.0859852  0.082267273   -2.0246779   0.93869275   507524 
  342000    1.0339635   -2.0266423   -2.0266423    -1.085888  0.081286218   -2.0266423   0.94075428   507524 
  343000    1.0329542   -2.0265117   -2.0265117   -1.0866757  0.073518504   -2.0265117   0.93983599   507524 
  344000    1.0321085   -2.0261979   -2.0261979   -1.0871314  0.077715455   -2.0261979   0.93906654   507524 
  345000    1.0332937   -2.0281789   -2.0281789    -1.088034  0.091418285   -2.0281789   0.94014493   507524 
  346000    1.0322999   -2.0273635   -2.0273635   -1.0881228  0.071006708   -2.0273635   0.93924069   507524 
  347000    1.0335357   -2.0278588   -2.0278588   -1.0874936  0.087293749   -2.0278588   0.94036512   507524 
  348000    1.0320496   -2.0274151   -2.0274151   -1.0884021   0.06864142   -2.0274151   0.93901298   507524 
  349000     1.031487   -2.0267176   -2.0267176   -1.0882165  0.070724148   -2.0267176   0.93850104   507524 
  350000    1.0297398   -2.0258787   -2.0258787   -1.0889673  0.081269826   -2.0258787   0.93691134   507524 
  351000    1.0299978   -2.0258827   -2.0258827   -1.0887366  0.074528182   -2.0258827    0.9371461   507524 
  352000    1.0325596   -2.0282316   -2.0282316   -1.0887546  0.067449675   -2.0282316   0.93947701   507524 
  353000    1.0323996   -2.0279562   -2.0279562   -1.0886248  0.078347097   -2.0279562   0.93933143   507524 
  354000    1.0306065   -2.0263795   -2.0263795   -1.0886795  0.071918474   -2.0263795   0.93769998   507524 
  355000    1.0309063   -2.0268247   -2.0268247    -1.088852  0.075921298   -2.0268247   0.93797269   507524 
  356000    1.0285748   -2.0250968   -2.0250968   -1.0892454  0.060011782   -2.0250968    0.9358514   507524 
  357000    1.0301009   -2.0261051   -2.0261051   -1.0888652    0.0783555   -2.0261051   0.93723988   507524 
  358000    1.0296284   -2.0256597   -2.0256597   -1.0888497  0.075234895   -2.0256597   0.93680998   507524 
  359000    1.0314619   -2.0266822   -2.0266822   -1.0882039  0.078085544   -2.0266822   0.93847825   507524 
  360000    1.0316305   -2.0271132   -2.0271132   -1.0884816  0.073071444   -2.0271132   0.93863163   507524 
  361000    1.0296082   -2.0266255   -2.0266255   -1.0898339   0.08268196   -2.0266255   0.93679167   507524 
  362000    1.0302266   -2.0265673   -2.0265673    -1.089213  0.071104059   -2.0265673   0.93735433   507524 
  363000    1.0300022   -2.0274281   -2.0274281    -1.090278  0.076143123   -2.0274281   0.93715015   507524 
  364000      1.02857   -2.0261017   -2.0261017   -1.0902546  0.075586338   -2.0261017   0.93584704   507524 
  365000    1.0306906   -2.0271354   -2.0271354    -1.089359  0.077542019   -2.0271354   0.93777646   507524 
  366000    1.0300401    -2.026237    -2.026237   -1.0890524  0.069109065    -2.026237   0.93718463   507524 
  367000    1.0303822    -2.027564    -2.027564   -1.0900681  0.071126568    -2.027564   0.93749582   507524 
  368000    1.0289058   -2.0264674   -2.0264674   -1.0903149  0.070298427   -2.0264674   0.93615254   507524 
  369000    1.0324894    -2.029992    -2.029992   -1.0905789  0.069566575    -2.029992   0.93941313   507524 
  370000    1.0304414   -2.0287276   -2.0287276   -1.0911779  0.062200369   -2.0287276   0.93754972   507524 
  371000    1.0321157   -2.0298476   -2.0298476   -1.0907745  0.072252856   -2.0298476   0.93907312   507524 
  372000    1.0311533   -2.0297421   -2.0297421   -1.0915447  0.070769363   -2.0297421   0.93819743   507524 
  373000    1.0295348    -2.028336    -2.028336   -1.0916112  0.074309893    -2.028336   0.93672488   507524 
  374000    1.0308626   -2.0290654   -2.0290654   -1.0911325  0.083992002   -2.0290654   0.93793292   507524 
  375000     1.029947   -2.0286634   -2.0286634   -1.0915636  0.078125299   -2.0286634   0.93709989   507524 
  376000     1.031157   -2.0306972   -2.0306972   -1.0924963  0.078302954   -2.0306972   0.93820084   507524 
  377000    1.0322365   -2.0313032   -2.0313032   -1.0921202  0.068659241   -2.0313032   0.93918303   507524 
  378000    1.0294254   -2.0291453   -2.0291453   -1.0925199  0.071719944   -2.0291453   0.93662536   507524 
  379000    1.0303598   -2.0298155   -2.0298155     -1.09234   0.06773653   -2.0298155   0.93747545   507524 
  380000    1.0303197   -2.0303694   -2.0303694   -1.0929304   0.08106119   -2.0303694   0.93743898   507524 
  381000     1.030299   -2.0308304   -2.0308304   -1.0934102  0.083680084   -2.0308304   0.93742017   507524 
  382000    1.0292665   -2.0296237   -2.0296237   -1.0931429  0.077215348   -2.0296237   0.93648077   507524 
  383000    1.0308402   -2.0315507   -2.0315507   -1.0936381  0.074177035   -2.0315507   0.93791259   507524 
  384000    1.0299554   -2.0308889   -2.0308889   -1.0937814  0.074884703   -2.0308889   0.93710751   507524 
  385000    1.0320499    -2.031862    -2.031862   -1.0928487  0.083992942    -2.031862   0.93901326   507524 
  386000    1.0292009   -2.0294074   -2.0294074   -1.0929863  0.079997406   -2.0294074   0.93642109   507524 
  387000    1.0314631   -2.0314777   -2.0314777   -1.0929985  0.069250481   -2.0314777   0.93847928   507524 
  388000    1.0291251   -2.0298092   -2.0298092   -1.0934571  0.081321469   -2.0298092   0.93635206   507524 
  389000    1.0328803   -2.0332807   -2.0332807   -1.0935119  0.074717489   -2.0332807   0.93976873   507524 
  390000    1.0300234   -2.0314149   -2.0314149   -1.0942455  0.074173926   -2.0314149   0.93716937   507524 
  391000    1.0296969   -2.0316022   -2.0316022   -1.0947298  0.072996549   -2.0316022   0.93687234   507524 
  392000    1.0298695   -2.0328432   -2.0328432   -1.0958139  0.067475584   -2.0328432   0.93702936   507524 
  393000    1.0286222   -2.0316475   -2.0316475   -1.0957529   0.07600908   -2.0316475   0.93589456   507524 
  394000    1.0285115   -2.0317896   -2.0317896   -1.0959958  0.068609985   -2.0317896   0.93579379   507524 
  395000    1.0294695   -2.0331502   -2.0331502   -1.0964848  0.075555285   -2.0331502   0.93666547   507524 
  396000     1.029742     -2.03261     -2.03261   -1.0956966  0.071031272     -2.03261   0.93691338   507524 
  397000    1.0289103   -2.0310746   -2.0310746    -1.094918  0.072950655   -2.0310746   0.93615661   507524 
  398000    1.0294093    -2.032818    -2.032818   -1.0962074  0.073660774    -2.032818   0.93661066   507524 
  399000    1.0270196    -2.031595    -2.031595   -1.0971587  0.072367471    -2.031595   0.93443637   507524 
  400000    1.0286234   -2.0337412   -2.0337412   -1.0978456  0.070561937   -2.0337412   0.93589558   507524 
  401000     1.029128   -2.0337594   -2.0337594   -1.0974047   0.06785862   -2.0337594   0.93635471   507524 
  402000    1.0300958   -2.0347705   -2.0347705   -1.0975352  0.063250943   -2.0347705   0.93723524   507524 
  403000    1.0278438   -2.0336189   -2.0336189   -1.0984326  0.082255015   -2.0336189   0.93518627   507524 
  404000    1.0297758   -2.0343701   -2.0343701    -1.097426  0.071278708   -2.0343701   0.93694411   507524 
  405000    1.0296776   -2.0331128   -2.0331128    -1.096258  0.084237808   -2.0331128   0.93685479   507524 
  406000    1.0291679     -2.03264     -2.03264    -1.096249  0.067246065     -2.03264   0.93639106   507524 
  407000    1.0305986   -2.0330831   -2.0330831   -1.0953903   0.08423577   -2.0330831   0.93769275   507524 
  408000     1.030662   -2.0329856   -2.0329856   -1.0952351  0.073420052   -2.0329856   0.93775042   507524 
  409000    1.0307226   -2.0325259   -2.0325259   -1.0947203  0.080955563   -2.0325259    0.9378056   507524 
  410000    1.0318156   -2.0338743   -2.0338743   -1.0950743  0.079051143   -2.0338743   0.93880009   507524 
  411000    1.0320637   -2.0340645   -2.0340645   -1.0950387  0.076555477   -2.0340645   0.93902582   507524 
  412000    1.0292338   -2.0322805   -2.0322805   -1.0958295  0.079271889   -2.0322805   0.93645099   507524 
  413000    1.0292597   -2.0325864   -2.0325864   -1.0961119  0.081903056   -2.0325864   0.93647451   507524 
  414000    1.0300314   -2.0338449   -2.0338449   -1.0966682  0.071676281   -2.0338449   0.93717671   507524 
  415000    1.0303064   -2.0337538   -2.0337538   -1.0963269   0.06886546   -2.0337538   0.93742693   507524 
  416000    1.0291982   -2.0329132   -2.0329132   -1.0964946  0.074974956   -2.0329132   0.93641859   507524 
  417000     1.029618   -2.0330279   -2.0330279   -1.0962273  0.065963243   -2.0330279   0.93680056   507524 
  418000     1.028572   -2.0314632   -2.0314632   -1.0956144  0.079892673   -2.0314632   0.93584883   507524 
  419000    1.0314525   -2.0347386   -2.0347386   -1.0962689  0.078331041   -2.0347386   0.93846971   507524 
  420000    1.0296331   -2.0335276   -2.0335276   -1.0967134  0.073959779   -2.0335276   0.93681425   507524 
  421000    1.0304028   -2.0343262   -2.0343262   -1.0968116  0.069744145   -2.0343262   0.93751462   507524 
  422000     1.028675   -2.0323785   -2.0323785    -1.096436  0.079690569   -2.0323785   0.93594255   507524 
  423000    1.0295157   -2.0332318   -2.0332318   -1.0965244  0.078286381   -2.0332318   0.93670744   507524 
  424000    1.0295624   -2.0330527   -2.0330527   -1.0963027  0.073756242   -2.0330527      0.93675   507524 
  425000    1.0286415   -2.0326291   -2.0326291    -1.096717  0.087488764   -2.0326291   0.93591207   507524 
  426000    1.0308954   -2.0334805   -2.0334805   -1.0955177  0.078467674   -2.0334805    0.9379628   507524 
  427000     1.029181   -2.0323675   -2.0323675   -1.0959645  0.072169621   -2.0323675   0.93640297   507524 
  428000    1.0293101    -2.032269    -2.032269   -1.0957487  0.064858899    -2.032269   0.93652038   507524 
  429000    1.0289808   -2.0320625   -2.0320625   -1.0958417  0.078891535   -2.0320625    0.9362208   507524 
  430000     1.028288    -2.033232    -2.033232   -1.0976416  0.077030431    -2.033232    0.9355904   507524 
  431000    1.0278333     -2.03341     -2.03341   -1.0982332  0.063800616     -2.03341   0.93517677   507524 
  432000    1.0266509   -2.0318706   -2.0318706   -1.0977697  0.077166288   -2.0318706   0.93410089   507524 
  433000     1.028787   -2.0337579   -2.0337579   -1.0977134  0.067856097   -2.0337579   0.93604446   507524 
  434000    1.0281093   -2.0333551   -2.0333551   -1.0979272  0.075524175   -2.0333551   0.93542786   507524 
  435000    1.0294581   -2.0341394   -2.0341394   -1.0974843  0.066498456   -2.0341394   0.93665505   507524 
  436000    1.0283288   -2.0330749   -2.0330749   -1.0974473  0.074993356   -2.0330749   0.93562755   507524 
  437000    1.0292793   -2.0337141   -2.0337141   -1.0972217  0.071412772   -2.0337141   0.93649236   507524 
  438000    1.0300656   -2.0342847   -2.0342847   -1.0970768  0.066659372   -2.0342847    0.9372078   507524 
  439000    1.0299065   -2.0343021   -2.0343021    -1.097239  0.078053875   -2.0343021   0.93706308   507524 
  440000    1.0327462   -2.0363678   -2.0363678   -1.0967211  0.075273616   -2.0363678   0.93964671   507524 
  441000    1.0305691    -2.034486    -2.034486   -1.0968201  0.071924645    -2.034486    0.9376659   507524 
  442000    1.0294016   -2.0334665   -2.0334665   -1.0968628  0.078010663   -2.0334665    0.9366037   507524 
  443000    1.0294179   -2.0342469   -2.0342469   -1.0976284  0.071600937   -2.0342469   0.93661846   507524 
  444000    1.0291493   -2.0347727   -2.0347727   -1.0983986  0.082852148   -2.0347727    0.9363741   507524 
  445000    1.0275359   -2.0336405   -2.0336405   -1.0987343  0.091543788   -2.0336405   0.93490619   507524 
  446000    1.0298054   -2.0362738   -2.0362738   -1.0993027   0.07827129   -2.0362738   0.93697106   507524 
  447000    1.0283208   -2.0345321   -2.0345321   -1.0989118  0.077224138   -2.0345321   0.93562031   507524 
  448000    1.0302324   -2.0361628   -2.0361628   -1.0988032  0.066540256   -2.0361628   0.93735954   507524 
  449000    1.0295049   -2.0352261   -2.0352261   -1.0985284  0.074367508   -2.0352261   0.93669764   507524 
  450000    1.0291153   -2.0344454   -2.0344454   -1.0981022  0.065424524   -2.0344454   0.93634316   507524 
  451000    1.0266029   -2.0321296   -2.0321296   -1.0980723  0.076131357   -2.0321296   0.93405729   507524 
  452000    1.0293273   -2.0353327   -2.0353327   -1.0987966  0.074974967   -2.0353327   0.93653603   507524 
  453000    1.0285532   -2.0340635   -2.0340635   -1.0982317  0.063762782   -2.0340635   0.93583178   507524 
  454000    1.0286761   -2.0350384   -2.0350384   -1.0990948  0.066310064   -2.0350384    0.9359436   507524 
  455000     1.026871   -2.0329729   -2.0329729   -1.0986717  0.078766353   -2.0329729    0.9343012   507524 
  456000    1.0293258   -2.0346706   -2.0346706   -1.0981358  0.071574729   -2.0346706   0.93653473   507524 
  457000      1.02603   -2.0310527   -2.0310527   -1.0975167  0.072231691   -2.0310527   0.93353602   507524 
  458000    1.0279758   -2.0332865   -2.0332865   -1.0979802  0.070718358   -2.0332865   0.93530636   507524 
  459000    1.0279132   -2.0344322   -2.0344322   -1.0991828  0.062582824   -2.0344322   0.93524942   507524 
  460000    1.0258336   -2.0321771   -2.0321771   -1.0988198  0.073068542   -2.0321771   0.93335732   507524 
  461000    1.0281488   -2.0339244   -2.0339244   -1.0984606  0.088211329   -2.0339244   0.93546376   507524 
  462000    1.0263652   -2.0338472   -2.0338472   -1.1000062  0.078274224   -2.0338472   0.93384099   507524 
  463000    1.0282717   -2.0364409   -2.0364409   -1.1008653  0.061120672   -2.0364409    0.9355756   507524 
  464000     1.025158   -2.0327325   -2.0327325   -1.0999899  0.074090914   -2.0327325   0.93274257   507524 
  465000    1.0283724   -2.0358406   -2.0358406   -1.1001734  0.066124768   -2.0358406    0.9356672   507524 
  466000    1.0270762   -2.0343491   -2.0343491   -1.0998612  0.063649487   -2.0343491   0.93448788   507524 
  467000    1.0277558   -2.0348808   -2.0348808   -1.0997746  0.084954913   -2.0348808   0.93510626   507524 
  468000    1.0281086   -2.0353867   -2.0353867   -1.0999594  0.082239974   -2.0353867   0.93542725   507524 
  469000    1.0270837   -2.0355513   -2.0355513   -1.1010566  0.080544735   -2.0355513   0.93449475   507524 
  470000     1.027513    -2.036086    -2.036086   -1.1012006  0.080438168    -2.036086   0.93488534   507524 
  471000     1.029214   -2.0370024   -2.0370024   -1.1005695   0.08001629   -2.0370024   0.93643293   507524 
  472000    1.0279537   -2.0368558   -2.0368558   -1.1015695  0.068496965   -2.0368558   0.93528625   507524 
  473000     1.027661   -2.0366489   -2.0366489    -1.101629  0.081953111   -2.0366489   0.93501998   507524 
  474000    1.0266246    -2.036086    -2.036086   -1.1020089  0.076238887    -2.036086   0.93407704   507524 
  475000     1.028429   -2.0373357   -2.0373357    -1.101617  0.096406796   -2.0373357   0.93571872   507524 
  476000    1.0283292   -2.0377766   -2.0377766   -1.1021487   0.08015525   -2.0377766   0.93562794   507524 
  477000    1.0301922   -2.0391787   -2.0391787   -1.1018557  0.081532407   -2.0391787   0.93732298   507524 
  478000    1.0283669   -2.0387013   -2.0387013   -1.1030391  0.072031636   -2.0387013   0.93566221   507524 
  479000    1.0305038   -2.0404902   -2.0404902   -1.1028837  0.075099902   -2.0404902    0.9376065   507524 
  480000    1.0305041   -2.0398066   -2.0398066   -1.1021998  0.070278935   -2.0398066   0.93760677   507524 
  481000    1.0296787   -2.0400834   -2.0400834   -1.1032277   0.07388952   -2.0400834   0.93685576   507524 
  482000    1.0301614   -2.0406164   -2.0406164   -1.1033215  0.076110215   -2.0406164   0.93729496   507524 
  483000    1.0288643   -2.0391791   -2.0391791   -1.1030643  0.074738986   -2.0391791   0.93611477   507524 
  484000    1.0291056   -2.0393165   -2.0393165   -1.1029822  0.082143461   -2.0393165    0.9363343   507524 
  485000    1.0294285   -2.0399161   -2.0399161    -1.103288  0.080401548   -2.0399161   0.93662811   507524 
  486000    1.0290647   -2.0392547   -2.0392547   -1.1029576  0.072855754   -2.0392547   0.93629713   507524 
  487000    1.0286738   -2.0395393   -2.0395393   -1.1035978  0.075836727   -2.0395393    0.9359415   507524 
  488000    1.0267293   -2.0375809   -2.0375809   -1.1034086  0.077167975   -2.0375809    0.9341723   507524 
  489000    1.0274548   -2.0381919   -2.0381919   -1.1033595  0.072185277   -2.0381919   0.93483238   507524 
  490000    1.0279007   -2.0390736   -2.0390736   -1.1038355  0.067556138   -2.0390736   0.93523804   507524 
  491000    1.0256349   -2.0366473   -2.0366473   -1.1034708  0.073468319   -2.0366473    0.9331765   507524 
  492000    1.0264761   -2.0378656   -2.0378656   -1.1039237  0.080000352   -2.0378656   0.93394186   507524 
  493000    1.0272187   -2.0392887   -2.0392887   -1.1046711  0.077255243   -2.0392887   0.93461755   507524 
  494000    1.0251423   -2.0370947   -2.0370947   -1.1043664  0.069022042   -2.0370947   0.93272832   507524 
  495000    1.0275322   -2.0387757   -2.0387757   -1.1038729  0.076004886   -2.0387757   0.93490276   507524 
  496000     1.025411   -2.0369687   -2.0369687   -1.1039958  0.074282066   -2.0369687   0.93297284   507524 
  497000    1.0268542   -2.0371757   -2.0371757   -1.1028898  0.077614615   -2.0371757   0.93428588   507524 
  498000     1.026337   -2.0366505   -2.0366505   -1.1028351  0.084794521   -2.0366505   0.93381535   507524 
  499000    1.0279001   -2.0380978   -2.0380978   -1.1028603  0.075805304   -2.0380978   0.93523754   507524 
  500000    1.0295333   -2.0404674   -2.0404674   -1.1037439  0.071539086   -2.0404674   0.93672351   507524 
  501000    1.0274175   -2.0378243   -2.0378243   -1.1030259  0.079907385   -2.0378243   0.93479839   507524 
  502000    1.0291541   -2.0385377   -2.0385377   -1.1021592  0.073373853   -2.0385377   0.93637849   507524 
  503000    1.0262348   -2.0371347   -2.0371347   -1.1034124  0.072825144   -2.0371347   0.93372232   507524 
  504000    1.0254728   -2.0363519   -2.0363519   -1.1033229  0.078393811   -2.0363519     0.933029   507524 
  505000    1.0290009   -2.0395813   -2.0395813   -1.1033422  0.076209566   -2.0395813   0.93623905   507524 
  506000     1.028144   -2.0399999   -2.0399999   -1.1045404  0.070180002   -2.0399999   0.93545942   507524 
  507000    1.0273846   -2.0399424   -2.0399424    -1.105174   0.07117402   -2.0399424   0.93476845   507524 
  508000    1.0257259   -2.0381532   -2.0381532   -1.1048939  0.074810716   -2.0381532   0.93325934   507524 
  509000    1.0271387      -2.0396      -2.0396   -1.1050552  0.067066126      -2.0396   0.93454478   507524 
  510000    1.0276421   -2.0407939   -2.0407939   -1.1057911  0.076868782   -2.0407939   0.93500275   507524 
  511000    1.0256904   -2.0391734   -2.0391734   -1.1059464  0.078312426   -2.0391734   0.93322702   507524 
  512000    1.0269424   -2.0410324   -2.0410324   -1.1066663   0.07973588   -2.0410324   0.93436615   507524 
  513000    1.0251249   -2.0393183   -2.0393183   -1.1066058  0.084914122   -2.0393183   0.93271251   507524 
  514000    1.0264957   -2.0407035   -2.0407035   -1.1067438   0.07700356   -2.0407035   0.93395973   507524 
  515000    1.0249364   -2.0396875   -2.0396875   -1.1071466  0.067989401   -2.0396875   0.93254097   507524 
  516000    1.0269526   -2.0415485   -2.0415485   -1.1071731  0.076626753   -2.0415485   0.93437544   507524 
  517000    1.0265938   -2.0412241   -2.0412241   -1.1071751   0.07881522   -2.0412241   0.93404897   507524 
  518000    1.0268992   -2.0413097   -2.0413097   -1.1069829  0.088792225   -2.0413097    0.9343268   507524 
  519000    1.0271681   -2.0420752   -2.0420752   -1.1075037  0.075598861   -2.0420752    0.9345715   507524 
  520000    1.0286473   -2.0429219   -2.0429219   -1.1070046  0.081071251   -2.0429219   0.93591732   507524 
  521000    1.0287462   -2.0438315   -2.0438315   -1.1078241  0.083110389   -2.0438315   0.93600737   507524 
  522000    1.0287603   -2.0426492   -2.0426492    -1.106629  0.072400247   -2.0426492    0.9360202   507524 
  523000    1.0292996   -2.0430109   -2.0430109   -1.1065001  0.076884585   -2.0430109   0.93651084   507524 
  524000    1.0289752   -2.0434185   -2.0434185   -1.1072028  0.073783839   -2.0434185   0.93621574   507524 
  525000    1.0278502   -2.0432276   -2.0432276   -1.1080355  0.073904408   -2.0432276   0.93519211   507524 
  526000    1.0276783   -2.0435524   -2.0435524   -1.1085167  0.083614882   -2.0435524   0.93503569   507524 
  527000    1.0282373   -2.0429655   -2.0429655   -1.1074212  0.082699438   -2.0429655   0.93554433   507524 
  528000     1.029575   -2.0436917   -2.0436917   -1.1069303  0.083256183   -2.0436917    0.9367614   507524 
  529000    1.0305962   -2.0453488   -2.0453488   -1.1076582  0.076065205   -2.0453488   0.93769058   507524 
  530000    1.0286824   -2.0437122   -2.0437122   -1.1077629  0.092779024   -2.0437122   0.93594932   507524 
  531000    1.0271533    -2.042671    -2.042671   -1.1081129  0.080904414    -2.042671   0.93455802   507524 
  532000    1.0284124   -2.0446567   -2.0446567    -1.108953   0.07443512   -2.0446567   0.93570364   507524 
  533000    1.0271962    -2.043388    -2.043388    -1.108791   0.07115893    -2.043388   0.93459706   507524 
  534000    1.0273273   -2.0434995   -2.0434995   -1.1087832   0.08102315   -2.0434995   0.93471635   507524 
  535000    1.0276729   -2.0435685   -2.0435685   -1.1085377  0.083733971   -2.0435685    0.9350308   507524 
  536000    1.0285093   -2.0444063   -2.0444063   -1.1086145  0.070828655   -2.0444063   0.93579181   507524 
  537000    1.0277904   -2.0441622   -2.0441622   -1.1090245  0.078586741   -2.0441622   0.93513773   507524 
  538000    1.0271845   -2.0433833   -2.0433833   -1.1087969  0.071903182   -2.0433833   0.93458643   507524 
  539000    1.0285972   -2.0441279   -2.0441279   -1.1082561  0.075733274   -2.0441279   0.93587175   507524 
  540000    1.0287879   -2.0433833   -2.0433833    -1.107338  0.074173401   -2.0433833   0.93604532   507524 
  541000    1.0283946   -2.0424491   -2.0424491   -1.1067617  0.071829257   -2.0424491   0.93568743   507524 
  542000     1.027968   -2.0431301   -2.0431301   -1.1078308  0.069700852   -2.0431301   0.93529934   507524 
  543000     1.028256   -2.0437602   -2.0437602   -1.1081988  0.077154653   -2.0437602   0.93556136   507524 
  544000    1.0252026   -2.0403351   -2.0403351   -1.1075519   0.07812043   -2.0403351   0.93278318   507524 
  545000    1.0254007   -2.0404062   -2.0404062   -1.1074428  0.078925184   -2.0404062   0.93296344   507524 
  546000    1.0271918   -2.0419626   -2.0419626   -1.1073695  0.074510052   -2.0419626   0.93459305   507524 
  547000    1.0280508   -2.0418661   -2.0418661   -1.1064914  0.067303378   -2.0418661   0.93537464   507524 
  548000    1.0286851   -2.0426202   -2.0426202   -1.1066684  0.066233928   -2.0426202   0.93595178   507524 
  549000    1.0272731   -2.0405133   -2.0405133   -1.1058462  0.075809071   -2.0405133   0.93466705   507524 
  550000    1.0288171   -2.0425136   -2.0425136   -1.1064418  0.067346082   -2.0425136   0.93607187   507524 
  551000    1.0309419   -2.0438384   -2.0438384   -1.1058333  0.079207373   -2.0438384   0.93800508   507524 
  552000    1.0257818    -2.040116    -2.040116   -1.1068058  0.084792063    -2.040116   0.93331015   507524 
  553000    1.0275168   -2.0413079   -2.0413079   -1.1064191  0.079179346   -2.0413079   0.93488881   507524 
  554000    1.0269787   -2.0420489   -2.0420489   -1.1076497  0.071540695   -2.0420489   0.93439919   507524 
  555000    1.0268004   -2.0410848   -2.0410848   -1.1068479  0.067658648   -2.0410848   0.93423693   507524 
  556000    1.0273549   -2.0415402   -2.0415402   -1.1067987  0.074490023   -2.0415402   0.93474146   507524 
  557000      1.02913   -2.0433748   -2.0433748   -1.1070182  0.073849331   -2.0433748   0.93635655   507524 
  558000    1.0286159   -2.0422152   -2.0422152   -1.1063265   0.06554836   -2.0422152   0.93588878   507524 
  559000    1.0283707   -2.0418181   -2.0418181   -1.1061524  0.068292254   -2.0418181   0.93566567   507524 
  560000    1.0299647   -2.0440995   -2.0440995   -1.1069836  0.069797649   -2.0440995   0.93711598   507524 
  561000    1.0295861   -2.0446492   -2.0446492   -1.1078777  0.080275235   -2.0446492    0.9367715   507524 
  562000    1.0267236   -2.0427034   -2.0427034   -1.1085363  0.065907143   -2.0427034   0.93416708   507524 
  563000    1.0273029   -2.0439936   -2.0439936   -1.1092995  0.070989416   -2.0439936   0.93469413   507524 
  564000    1.0268978   -2.0442333   -2.0442333   -1.1099077   0.07961684   -2.0442333   0.93432561   507524 
  565000    1.0273818   -2.0445591   -2.0445591   -1.1097932  0.069713927   -2.0445591   0.93476596   507524 
  566000    1.0249897   -2.0425372   -2.0425372   -1.1099477  0.074692052   -2.0425372   0.93258952   507524 
  567000    1.0269805   -2.0441607   -2.0441607   -1.1097599  0.061123899   -2.0441607   0.93440079   507524 
  568000    1.0293816   -2.0455834   -2.0455834   -1.1089979   0.06945038   -2.0455834   0.93658546   507524 
  569000     1.027141   -2.0435697   -2.0435697   -1.1090229  0.068488059   -2.0435697    0.9345468   507524 
  570000    1.0284492   -2.0449383   -2.0449383   -1.1092011  0.071231853   -2.0449383   0.93573712   507524 
  571000     1.027887   -2.0450902   -2.0450902   -1.1098646  0.081744677   -2.0450902   0.93522556   507524 
  572000    1.0276381   -2.0450518   -2.0450518   -1.1100526  0.072951162   -2.0450518   0.93499912   507524 
  573000    1.0282809   -2.0449581   -2.0449581    -1.109374  0.086663492   -2.0449581   0.93558403   507524 
  574000    1.0279584   -2.0441461   -2.0441461   -1.1088556   0.08378459   -2.0441461   0.93529058   507524 
  575000    1.0303375   -2.0467578   -2.0467578   -1.1093027  0.073216936   -2.0467578   0.93745515   507524 
  576000    1.0292741   -2.0452212   -2.0452212   -1.1087336  0.080062168   -2.0452212   0.93648764   507524 
  577000    1.0301471   -2.0462488   -2.0462488   -1.1089668  0.076508435   -2.0462488   0.93728199   507524 
  578000    1.0309236   -2.0470681   -2.0470681   -1.1090796  0.083891127   -2.0470681   0.93798849   507524 
  579000    1.0283853   -2.0445978   -2.0445978   -1.1089188  0.080545796   -2.0445978   0.93567898   507524 
  580000    1.0275734   -2.0442181   -2.0442181   -1.1092778  0.086838693   -2.0442181   0.93494027   507524 
  581000    1.0292199    -2.045391    -2.045391   -1.1089527  0.084240499    -2.045391   0.93643831   507524 
  582000    1.0283898   -2.0453132   -2.0453132   -1.1096301  0.078393338   -2.0453132   0.93568311   507524 
  583000     1.027535   -2.0442473   -2.0442473    -1.109342  0.075296422   -2.0442473   0.93490537   507524 
  584000    1.0254029   -2.0430996   -2.0430996   -1.1101342  0.078938976   -2.0430996    0.9329654   507524 
  585000    1.0269019   -2.0446399   -2.0446399   -1.1103106  0.082378662   -2.0446399   0.93432932   507524 
  586000    1.0279088   -2.0457597   -2.0457597   -1.1105143  0.072508596   -2.0457597   0.93524539   507524 
  587000    1.0268174   -2.0447222   -2.0447222   -1.1104698  0.074238923   -2.0447222   0.93425244   507524 
  588000    1.0264598   -2.0448088   -2.0448088   -1.1108818  0.073100047   -2.0448088   0.93392704   507524 
  589000    1.0268828   -2.0437717   -2.0437717   -1.1094597  0.078028226   -2.0437717   0.93431196   507524 
  590000    1.0266191   -2.0443739   -2.0443739    -1.110302  0.071604653   -2.0443739   0.93407195   507524 
  591000    1.0280713   -2.0457903   -2.0457903    -1.110397  0.076753673   -2.0457903   0.93539329   507524 
  592000    1.0273639   -2.0451273   -2.0451273   -1.1103777  0.073838194   -2.0451273   0.93474966   507524 
  593000    1.0265856   -2.0449204   -2.0449204   -1.1108789  0.083267571   -2.0449204   0.93404148   507524 
  594000    1.0270455   -2.0446215   -2.0446215   -1.1101615  0.069963034   -2.0446215      0.93446   507524 
  595000    1.0278458   -2.0460515   -2.0460515   -1.1108633  0.065214511   -2.0460515   0.93518811   507524 
  596000     1.024095   -2.0431971   -2.0431971   -1.1114217  0.076637631   -2.0431971   0.93177544   507524 
  597000    1.0248912   -2.0429752   -2.0429752   -1.1104753  0.071412638   -2.0429752   0.93249989   507524 
  598000    1.0260611   -2.0442008   -2.0442008   -1.1106365  0.076641949   -2.0442008   0.93356433   507524 
  599000    1.0279269   -2.0454621   -2.0454621   -1.1102002  0.073062607   -2.0454621   0.93526193   507524 
  600000    1.0268817   -2.0445517   -2.0445517   -1.1102408  0.075868982   -2.0445517   0.93431093   507524 
  601000    1.0282275   -2.0459607   -2.0459607   -1.1104254  0.068167336   -2.0459607   0.93553538   507524 
  602000    1.0275353   -2.0449819   -2.0449819   -1.1100764  0.066292932   -2.0449819   0.93490556   507524 
  603000    1.0267139   -2.0443982   -2.0443982     -1.11024  0.081590784   -2.0443982   0.93415821   507524 
  604000    1.0281202   -2.0458475   -2.0458475   -1.1104097  0.086078124   -2.0458475   0.93543778   507524 
  605000    1.0277524   -2.0452966   -2.0452966   -1.1101935  0.072567364   -2.0452966   0.93510309   507524 
  606000    1.0276195   -2.0461077   -2.0461077   -1.1111255  0.075132323   -2.0461077   0.93498222   507524 
  607000    1.0297624   -2.0488614   -2.0488614   -1.1119295  0.073113365   -2.0488614   0.93693192   507524 
  608000     1.027075   -2.0464797   -2.0464797   -1.1119929  0.078362922   -2.0464797   0.93448679   507524 
  609000    1.0273098   -2.0456763   -2.0456763   -1.1109759  0.073142223   -2.0456763   0.93470039   507524 
  610000    1.0268705    -2.045672    -2.045672   -1.1113713  0.074115052    -2.045672    0.9343007   507524 
  611000    1.0247904   -2.0446264   -2.0446264   -1.1122182  0.077993594   -2.0446264   0.93240819   507524 
  612000    1.0269956   -2.0467814   -2.0467814   -1.1123669  0.076325901   -2.0467814   0.93441456   507524 
  613000    1.0265654   -2.0462172   -2.0462172   -1.1121941  0.062883574   -2.0462172   0.93402311   507524 
  614000    1.0283537   -2.0477566   -2.0477566   -1.1121064  0.077956822   -2.0477566   0.93565018   507524 
  615000    1.0271464   -2.0477928   -2.0477928    -1.113241  0.073329004   -2.0477928   0.93455176   507524 
  616000    1.0257693   -2.0463237   -2.0463237   -1.1130249  0.074265409   -2.0463237   0.93329881   507524 
  617000    1.0275539   -2.0480116   -2.0480116   -1.1130891   0.07109047   -2.0480116   0.93492253   507524 
  618000    1.0278947   -2.0479559   -2.0479559   -1.1127234  0.067665188   -2.0479559   0.93523259   507524 
  619000      1.02622   -2.0472248   -2.0472248   -1.1135159  0.079760873   -2.0472248   0.93370886   507524 
  620000    1.0274002   -2.0483147   -2.0483147   -1.1135321  0.062633254   -2.0483147   0.93478266   507524 
  621000    1.0268313   -2.0488737   -2.0488737   -1.1146086  0.073616755   -2.0488737   0.93426506   507524 
  622000    1.0249278   -2.0483187   -2.0483187   -1.1157855  0.075570203   -2.0483187   0.93253319   507524 
  623000    1.0260663   -2.0487633   -2.0487633   -1.1151943  0.067693607   -2.0487633   0.93356901   507524 
  624000    1.0255862    -2.049073    -2.049073   -1.1159408   0.06985209    -2.049073   0.93313224   507524 
  625000    1.0256005   -2.0493458   -2.0493458   -1.1162005  0.064497249   -2.0493458   0.93314525   507524 
  626000    1.0251828   -2.0478587   -2.0478587   -1.1150936  0.072169901   -2.0478587   0.93276518   507524 
  627000    1.0244123   -2.0471807   -2.0471807   -1.1151166  0.072516689   -2.0471807   0.93206413   507524 
  628000    1.0250376   -2.0473138   -2.0473138   -1.1146808  0.080100069   -2.0473138   0.93263305   507524 
  629000    1.0271502    -2.049254    -2.049254   -1.1146987  0.074754334    -2.049254   0.93455521   507524 
  630000    1.0287656   -2.0512217   -2.0512217   -1.1151968  0.070395669   -2.0512217   0.93602497   507524 
  631000    1.0265673   -2.0487758   -2.0487758    -1.114751  0.077534862   -2.0487758   0.93402483   507524 
  632000    1.0237551   -2.0474767   -2.0474767   -1.1160106  0.080298743   -2.0474767   0.93146618   507524 
  633000    1.0259747   -2.0489247   -2.0489247   -1.1154391   0.06950346   -2.0489247   0.93348569   507524 
  634000    1.0256183   -2.0493985   -2.0493985    -1.116237  0.085433098   -2.0493985   0.93316143   507524 
  635000    1.0274157   -2.0509618   -2.0509618    -1.116165   0.07697868   -2.0509618   0.93479683   507524 
  636000    1.0267495   -2.0502651   -2.0502651   -1.1160744  0.075849744   -2.0502651   0.93419067   507524 
  637000    1.0266795   -2.0506779   -2.0506779   -1.1165509  0.078404333   -2.0506779   0.93412696   507524 
  638000    1.0259545   -2.0505498   -2.0505498   -1.1170825  0.064918234   -2.0505498    0.9334673   507524 
  639000    1.0245756   -2.0487895   -2.0487895   -1.1165769  0.081441843   -2.0487895   0.93221268   507524 
  640000    1.0247496   -2.0486024   -2.0486024   -1.1162314  0.073549235   -2.0486024     0.932371   507524 
  641000    1.0257548   -2.0498997   -2.0498997   -1.1166141  0.080990588   -2.0498997   0.93328565   507524 
  642000    1.0241229   -2.0485723   -2.0485723   -1.1167715  0.073246021   -2.0485723   0.93180084   507524 
  643000    1.0255748   -2.0497071   -2.0497071   -1.1165853  0.073587155   -2.0497071    0.9331218   507524 
  644000    1.0258149   -2.0497289   -2.0497289   -1.1163887    0.0739052   -2.0497289   0.93334025   507524 
[...]
 1003000     1.019809   -2.0701932   -2.0701932   -1.1423174  0.078260594   -2.0701932   0.92787582   507524 
 1004000    1.0183102   -2.0676089   -2.0676089   -1.1410968  0.072366271   -2.0676089   0.92651211   507524 
 1005000    1.0192237   -2.0684938   -2.0684938   -1.1411505  0.073852901   -2.0684938   0.92734331   507524 
 1006000    1.0206733   -2.0703153   -2.0703153   -1.1416532  0.062969684   -2.0703153   0.92866216   507524 
 1007000    1.0186525   -2.0677917   -2.0677917   -1.1409682  0.061720218   -2.0677917   0.92682352   507524 
 1008000     1.020741   -2.0689703   -2.0689703   -1.1402465  0.076208854   -2.0689703   0.92872381   507524 
 1009000    1.0168616   -2.0653935   -2.0653935   -1.1401993  0.077194991   -2.0653935   0.92519414   507524 
 1010000    1.0170887   -2.0645351   -2.0645351   -1.1391343  0.066858404   -2.0645351   0.92540077   507524 
 1011000    1.0180217   -2.0658496   -2.0658496      -1.1396  0.082384529   -2.0658496   0.92624962   507524 
 1012000    1.0189673    -2.066863    -2.066863    -1.139753  0.059959586    -2.066863   0.92710994   507524 
 1013000    1.0171637   -2.0655903   -2.0655903   -1.1401213  0.079702078   -2.0655903   0.92546895   507524 
 1014000    1.0197361   -2.0681857   -2.0681857   -1.1403762  0.071629324   -2.0681857   0.92780946   507524 
 1015000    1.0198673   -2.0680811   -2.0680811   -1.1401522  0.075123684   -2.0680811   0.92792886   507524 
 1016000    1.0210996    -2.068585    -2.068585    -1.139535  0.071090529    -2.068585   0.92905006   507524 
 1017000    1.0210404   -2.0680787   -2.0680787   -1.1390825  0.072209431   -2.0680787   0.92899617   507524 
 1018000    1.0200258   -2.0666368   -2.0666368   -1.1385637  0.078425234   -2.0666368   0.92807311   507524 
 1019000    1.0217564   -2.0685039   -2.0685039   -1.1388563  0.072601457   -2.0685039   0.92964763   507524 
 1020000    1.0213151   -2.0680646   -2.0680646   -1.1388185  0.072902794   -2.0680646   0.92924609   507524 
 1021000    1.0197038   -2.0673196   -2.0673196   -1.1395395  0.071106117   -2.0673196   0.92778012   507524 
 1022000    1.0196103   -2.0675212   -2.0675212   -1.1398261  0.071012152   -2.0675212   0.92769504   507524 
 1023000     1.019789   -2.0681106   -2.0681106    -1.140253  0.082911488   -2.0681106   0.92785757   507524 
 1024000    1.0192971   -2.0675053   -2.0675053   -1.1400953  0.077875901   -2.0675053   0.92741001   507524 
 1025000      1.01854   -2.0676314   -2.0676314   -1.1409102  0.066841483   -2.0676314    0.9267212   507524 
 1026000    1.0195095   -2.0689326   -2.0689326   -1.1413292  0.066197028   -2.0689326   0.92760334   507524 
 1027000    1.0183352   -2.0677616   -2.0677616   -1.1412267  0.075826978   -2.0677616   0.92653482   507524 
 1028000    1.0193751   -2.0680179   -2.0680179   -1.1405369   0.07503971   -2.0680179   0.92748103   507524 
 1029000    1.0187168   -2.0680493   -2.0680493   -1.1411673  0.077914174   -2.0680493   0.92688207   507524 
 1030000    1.0207012   -2.0698357   -2.0698357   -1.1411481  0.075458478   -2.0698357   0.92868754   507524 
 1031000    1.0201785   -2.0692011   -2.0692011   -1.1409891  0.069789237   -2.0692011   0.92821199   507524 
 1032000    1.0207329   -2.0694641   -2.0694641   -1.1407476  0.081199203   -2.0694641   0.92871646   507524 
 1033000     1.020109   -2.0678257   -2.0678257   -1.1396769  0.076834262   -2.0678257   0.92814881   507524 
 1034000    1.0198061   -2.0679039   -2.0679039   -1.1400307  0.091012326   -2.0679039   0.92787318   507524 
 1035000    1.0195432    -2.068264    -2.068264     -1.14063  0.067530151    -2.068264   0.92763398   507524 
 1036000    1.0215933   -2.0696997   -2.0696997   -1.1402004  0.065842986   -2.0696997   0.92949926   507524 
 1037000    1.0193992   -2.0672813   -2.0672813   -1.1397784  0.078543973   -2.0672813   0.92750292   507524 
 1038000    1.0189022   -2.0678145   -2.0678145   -1.1407637  0.077815289   -2.0678145   0.92705076   507524 
 1039000    1.0187362   -2.0674131   -2.0674131   -1.1405134  0.067267591   -2.0674131   0.92689972   507524 
 1040000    1.0209774   -2.0687778   -2.0687778    -1.139839  0.069991382   -2.0687778   0.92893886   507524 
 1041000    1.0192413   -2.0680912   -2.0680912   -1.1407319  0.080223089   -2.0680912   0.92735925   507524 
 1042000    1.0185526   -2.0671139   -2.0671139   -1.1403812  0.073878088   -2.0671139   0.92673267   507524 
 1043000    1.0203665   -2.0681513   -2.0681513   -1.1397682  0.072264785   -2.0681513   0.92838302   507524 
 1044000    1.0198794   -2.0682948   -2.0682948   -1.1403549  0.068224115   -2.0682948   0.92793989   507524 
 1045000    1.0184263   -2.0665671   -2.0665671   -1.1399493  0.066946675   -2.0665671   0.92661778   507524 
 1046000    1.0183154   -2.0668274   -2.0668274   -1.1403105  0.071205596   -2.0668274   0.92651685   507524 
 1047000    1.0182421   -2.0679392   -2.0679392   -1.1414891  0.079137196   -2.0679392   0.92645012   507524 
 1048000    1.0185065   -2.0682184   -2.0682184   -1.1415276  0.071040064   -2.0682184   0.92669072   507524 
 1049000    1.0167216   -2.0668738   -2.0668738   -1.1418071  0.079192093   -2.0668738   0.92506673   507524 
 1050000    1.0200324   -2.0702906   -2.0702906   -1.1422115  0.066470105   -2.0702906   0.92807907   507524 
 1051000    1.0162985   -2.0666202   -2.0666202   -1.1419384  0.075830106   -2.0666202    0.9246818   507524 
 1052000    1.0186025   -2.0687823   -2.0687823   -1.1420042  0.068227682   -2.0687823   0.92677806   507524 
 1053000    1.0189309   -2.0694638   -2.0694638   -1.1423869  0.080163127   -2.0694638   0.92707683   507524 
 1054000    1.0163413   -2.0679881   -2.0679881   -1.1432674  0.078966718   -2.0679881   0.92472069   507524 
 1055000    1.0182279   -2.0690416   -2.0690416   -1.1426044  0.059053176   -2.0690416   0.92643723   507524 
 1056000    1.0191608   -2.0706796   -2.0706796   -1.1433936  0.068541148   -2.0706796   0.92728602   507524 
 1057000    1.0186531   -2.0696129   -2.0696129   -1.1427888  0.069343569   -2.0696129   0.92682414   507524 
 1058000    1.0191544   -2.0699564   -2.0699564   -1.1426762  0.079990327   -2.0699564   0.92728018   507524 
 1059000    1.0191504   -2.0700453   -2.0700453   -1.1427687  0.079118377   -2.0700453   0.92727659   507524 
 1060000    1.0200255   -2.0713726   -2.0713726   -1.1432998  0.073091994   -2.0713726   0.92807281   507524 
 1061000    1.0196764   -2.0712336   -2.0712336   -1.1434785  0.072837123   -2.0712336   0.92775513   507524 
 1062000    1.0190083   -2.0714912   -2.0714912   -1.1443439  0.081829868   -2.0714912   0.92714728   507524 
 1063000    1.0201133   -2.0726114   -2.0726114   -1.1444588  0.085449387   -2.0726114   0.92815263   507524 
 1064000    1.0204438   -2.0717364   -2.0717364    -1.143283  0.084622557   -2.0717364   0.92845335   507524 
 1065000    1.0193006   -2.0716167   -2.0716167   -1.1442035  0.073539156   -2.0716167   0.92741321   507524 
 1066000    1.0199063   -2.0716174   -2.0716174   -1.1436531   0.06748076   -2.0716174   0.92796431   507524 
 1067000    1.0208726   -2.0726809   -2.0726809   -1.1438373   0.07953574   -2.0726809   0.92884357   507524 
 1068000    1.0217025   -2.0726154   -2.0726154   -1.1430168  0.077609947   -2.0726154   0.92959859   507524 
 1069000    1.0189658   -2.0699515   -2.0699515   -1.1428429  0.075858329   -2.0699515   0.92710864   507524 
 1070000    1.0212596   -2.0705485   -2.0705485   -1.1413529  0.068269041   -2.0705485   0.92919561   507524 
 1071000     1.021768   -2.0712854   -2.0712854   -1.1416272  0.080134467   -2.0712854    0.9296582   507524 
 1072000    1.0200541   -2.0694529   -2.0694529   -1.1413541   0.07478381   -2.0694529   0.92809882   507524 
 1073000    1.0194002   -2.0697575   -2.0697575   -1.1422536  0.079621806   -2.0697575   0.92750389   507524 
 1074000    1.0183238   -2.0691405   -2.0691405    -1.142616  0.078251898   -2.0691405   0.92652449   507524 
 1075000    1.0188429   -2.0705965   -2.0705965   -1.1435998  0.070090654   -2.0705965   0.92699676   507524 
 1076000    1.0182293   -2.0695464   -2.0695464   -1.1431079  0.075329327   -2.0695464   0.92643852   507524 
 1077000    1.0194565   -2.0711862   -2.0711862   -1.1436311  0.072906027   -2.0711862   0.92755508   507524 
 1078000    1.0179569   -2.0691921   -2.0691921   -1.1430014  0.069186846   -2.0691921   0.92619068   507524 
 1079000     1.019179   -2.0696486   -2.0696486    -1.142346  0.075531068   -2.0696486   0.92730258   507524 
 1080000    1.0179228   -2.0683116   -2.0683116   -1.1421519  0.078750075   -2.0683116   0.92615966   507524 
 1081000    1.0184788   -2.0685068   -2.0685068   -1.1418413  0.069758106   -2.0685068   0.92666556   507524 
 1082000    1.0194413   -2.0703363   -2.0703363   -1.1427951  0.081582566   -2.0703363   0.92754124   507524 
 1083000    1.0192191   -2.0693743   -2.0693743   -1.1420352  0.073620827   -2.0693743   0.92733908   507524 
 1084000    1.0206659   -2.0711083   -2.0711083   -1.1424528  0.066533295   -2.0711083   0.92865543   507524 
 1085000    1.0210116   -2.0713525   -2.0713525   -1.1423825  0.061232888   -2.0713525   0.92896997   507524 
 1086000    1.0196269   -2.0703909   -2.0703909   -1.1426808  0.075981974   -2.0703909    0.9277101   507524 
 1087000    1.0211228   -2.0724453   -2.0724453   -1.1433742  0.067231019   -2.0724453   0.92907119   507524 
 1088000    1.0201883   -2.0717745   -2.0717745   -1.1435535  0.075709046   -2.0717745   0.92822094   507524 
 1089000    1.0170328   -2.0688566   -2.0688566   -1.1435067  0.068113595   -2.0688566   0.92534986   507524 
 1090000    1.0174329   -2.0695876   -2.0695876   -1.1438737  0.075420889   -2.0695876   0.92571386   507524 
 1091000    1.0196296   -2.0713376   -2.0713376    -1.143625   0.07484339   -2.0713376   0.92771261   507524 
 1092000     1.019865   -2.0723177   -2.0723177    -1.144391  0.066959307   -2.0723177   0.92792677   507524 
 1093000     1.020612   -2.0727525   -2.0727525   -1.1441461   0.05689989   -2.0727525    0.9286064   507524 
 1094000    1.0187877   -2.0712581   -2.0712581   -1.1443116  0.075038471   -2.0712581   0.92694654   507524 
 1095000      1.02132   -2.0730611   -2.0730611   -1.1438105   0.06977756   -2.0730611   0.92925062   507524 
 1096000    1.0203686   -2.0729125   -2.0729125   -1.1445275  0.060801218   -2.0729125   0.92838496   507524 
 1097000    1.0203112   -2.0721845   -2.0721845   -1.1438518  0.077935418   -2.0721845   0.92833269   507524 
 1098000    1.0219145   -2.0730863   -2.0730863   -1.1432948  0.076818472   -2.0730863   0.92979147   507524 
 1099000    1.0208296    -2.072231    -2.072231   -1.1434267  0.077229111    -2.072231   0.92880439   507524 
 1100000    1.0207178   -2.0734025   -2.0734025   -1.1446997  0.070634259   -2.0734025   0.92870273   507524 
 1101000    1.0201979    -2.072999    -2.072999   -1.1447693  0.076500597    -2.072999   0.92822962   507524 
 1102000     1.018297   -2.0715737   -2.0715737   -1.1450735  0.077991522   -2.0715737   0.92650015   507524 
 1103000    1.0205121   -2.0734401   -2.0734401   -1.1449245  0.073330426   -2.0734401   0.92851557   507524 
 1104000    1.0187371   -2.0714274   -2.0714274   -1.1445269  0.075455137   -2.0714274   0.92690051   507524 
 1105000     1.019779   -2.0728311   -2.0728311   -1.1449825  0.077384463   -2.0728311   0.92784855   507524 
 1106000    1.0182717   -2.0717948   -2.0717948   -1.1453177  0.069777539   -2.0717948   0.92647711   507524 
 1107000    1.0200783   -2.0728758   -2.0728758    -1.144755  0.082213662   -2.0728758   0.92812081   507524 
 1108000    1.0192562   -2.0730808   -2.0730808   -1.1457079  0.070557203   -2.0730808   0.92737287   507524 
 1109000    1.0197463   -2.0735318   -2.0735318   -1.1457131  0.074319382   -2.0735318   0.92781874   507524 
 1110000    1.0191587   -2.0726917   -2.0726917   -1.1454076  0.066572016   -2.0726917    0.9272841   507524 
 1111000     1.019983   -2.0740269   -2.0740269   -1.1459928  0.073751092   -2.0740269   0.92803416   507524 
 1112000    1.0202495   -2.0732601   -2.0732601   -1.1449835  0.079926251   -2.0732601   0.92827658   507524 
 1113000    1.0195925   -2.0741782   -2.0741782   -1.1464994  0.068147034   -2.0741782   0.92767881   507524 
 1114000    1.0192638    -2.074355    -2.074355   -1.1469753  0.066930542    -2.074355   0.92737978   507524 
 1115000     1.019665   -2.0757168   -2.0757168    -1.147972  0.071485328   -2.0757168   0.92774479   507524 
 1116000    1.0182105   -2.0740544   -2.0740544    -1.147633  0.080436843   -2.0740544   0.92642137   507524 
 1117000    1.0213451   -2.0757775   -2.0757775    -1.146504  0.063371844   -2.0757775   0.92927343   507524 
 1118000    1.0185857   -2.0734069   -2.0734069   -1.1466441  0.079509674   -2.0734069    0.9267628   507524 
 1119000    1.0198606   -2.0750304   -2.0750304   -1.1471076  0.062262568   -2.0750304   0.92792274   507524 
 1120000     1.021086   -2.0769376   -2.0769376   -1.1478999  0.076516419   -2.0769376    0.9290377   507524 
 1121000    1.0196665    -2.073906    -2.073906   -1.1461599  0.066834697    -2.073906   0.92774615   507524 
 1122000    1.0231678   -2.0766076   -2.0766076   -1.1456758  0.081855617   -2.0766076   0.93093179   507524 
 1123000    1.0196641   -2.0741813   -2.0741813   -1.1464373  0.074164142   -2.0741813   0.92774401   507524 
 1124000     1.020445   -2.0750908   -2.0750908   -1.1466363  0.066528047   -2.0750908    0.9284545   507524 
 1125000    1.0196913   -2.0744982   -2.0744982   -1.1467295  0.077001479   -2.0744982   0.92776869   507524 
 1126000    1.0199367   -2.0740971   -2.0740971   -1.1461051   0.07748258   -2.0740971   0.92799199   507524 
 1127000     1.019312   -2.0735106   -2.0735106    -1.146087  0.062501545   -2.0735106   0.92742362   507524 
 1128000    1.0185776     -2.07232     -2.07232   -1.1455646  0.069780324     -2.07232   0.92675539   507524 
 1129000    1.0167921   -2.0719016   -2.0719016   -1.1467708  0.087019134   -2.0719016   0.92513087   507524 
 1130000     1.017023   -2.0728218   -2.0728218   -1.1474808  0.072646818   -2.0728218   0.92534097   507524 
 1131000    1.0181218   -2.0735043   -2.0735043   -1.1471636  0.070532155   -2.0735043   0.92634071   507524 
 1132000    1.0190166   -2.0737758   -2.0737758    -1.146621  0.066110131   -2.0737758   0.92715483   507524 
 1133000    1.0199044   -2.0735792   -2.0735792   -1.1456166   0.07467896   -2.0735792    0.9279626   507524 
 1134000    1.0182805   -2.0731486   -2.0731486   -1.1466635  0.066217381   -2.0731486   0.92648506   507524 
 1135000    1.0159014   -2.0704366   -2.0704366   -1.1461161  0.070781255   -2.0704366   0.92432047   507524 
 1136000    1.0164499   -2.0715517   -2.0715517   -1.1467322   0.08066008   -2.0715517   0.92481953   507524 
 1137000    1.0178314   -2.0726203   -2.0726203   -1.1465439  0.067135733   -2.0726203   0.92607645   507524 
 1138000     1.018377   -2.0727255   -2.0727255   -1.1461526  0.062168678   -2.0727255   0.92657291   507524 
 1139000    1.0182257   -2.0724255   -2.0724255   -1.1459903  0.067968504   -2.0724255   0.92643527   507524 
 1140000    1.0189346    -2.072998    -2.072998   -1.1459178  0.065179784    -2.072998   0.92708022   507524 
 1141000    1.0185103   -2.0724415   -2.0724415   -1.1457473  0.076849047   -2.0724415    0.9266942   507524 
 1142000    1.0176385    -2.071794    -2.071794    -1.145893  0.078102298    -2.071794     0.925901   507524 
 1143000    1.0162573   -2.0703427   -2.0703427   -1.1456983  0.074323387   -2.0703427   0.92464431   507524 
 1144000    1.0196849   -2.0739531   -2.0739531   -1.1461902  0.071410775   -2.0739531   0.92776289   507524 
 1145000    1.0186991   -2.0731143   -2.0731143   -1.1462484  0.076741137   -2.0731143   0.92686597   507524 
 1146000    1.0202215   -2.0751606   -2.0751606   -1.1469095  0.074565491   -2.0751606   0.92825111   507524 
 1147000    1.0202117    -2.074323    -2.074323   -1.1460808  0.076148519    -2.074323   0.92824216   507524 
 1148000     1.018409    -2.072995    -2.072995    -1.146393  0.076260229    -2.072995     0.926602   507524 
 1149000    1.0204922   -2.0738307   -2.0738307   -1.1453333   0.06988441   -2.0738307   0.92849744   507524 
 1150000    1.0191547   -2.0731529   -2.0731529   -1.1458724   0.06927215   -2.0731529   0.92728045   507524 
 1151000    1.0179955   -2.0725208   -2.0725208   -1.1462951  0.073387808   -2.0725208   0.92622576   507524 
 1152000    1.0179459    -2.073214    -2.073214   -1.1470334  0.082002467    -2.073214   0.92618063   507524 
 1153000    1.0192238   -2.0738693   -2.0738693    -1.146526  0.075630867   -2.0738693   0.92734333   507524 
 1154000    1.0191899   -2.0743634   -2.0743634   -1.1470509  0.081102974   -2.0743634   0.92731249   507524 
 1155000    1.0190379   -2.0742256   -2.0742256   -1.1470514   0.07328109   -2.0742256   0.92717421   507524 
 1156000    1.0183418   -2.0747987   -2.0747987   -1.1482578   0.06325336   -2.0747987   0.92654085   507524 
 1157000    1.0184185   -2.0747565   -2.0747565   -1.1481458  0.081723796   -2.0747565   0.92661067   507524 
 1158000    1.0173752   -2.0745493   -2.0745493    -1.148888  0.071366648   -2.0745493   0.92566139   507524 
 1159000    1.0176153    -2.074165    -2.074165   -1.1482852  0.069574496    -2.074165   0.92587987   507524 
 1160000    1.0184711   -2.0745212   -2.0745212   -1.1478627  0.069712973   -2.0745212    0.9266585   507524 
 1161000    1.0205614   -2.0750558   -2.0750558   -1.1464955  0.081325047   -2.0750558   0.92856034   507524 
 1162000    1.0188247   -2.0727309   -2.0727309   -1.1457507  0.083029224   -2.0727309    0.9269802   507524 
 1163000    1.0192581   -2.0738497   -2.0738497   -1.1464751  0.067175524   -2.0738497   0.92737456   507524 
 1164000    1.0223814   -2.0764424   -2.0764424   -1.1462261  0.071202193   -2.0764424   0.93021633   507524 
 1165000    1.0220552   -2.0765639   -2.0765639   -1.1466444  0.071710194   -2.0765639   0.92991949   507524 
 1166000    1.0209096    -2.075885    -2.075885   -1.1470078  0.068677243    -2.075885   0.92887715   507524 
 1167000    1.0182796   -2.0745778   -2.0745778   -1.1480935  0.065210916   -2.0745778   0.92648427   507524 
 1168000    1.0173814   -2.0731936   -2.0731936   -1.1475265  0.075995902   -2.0731936   0.92566705   507524 
 1169000    1.0194537   -2.0745604   -2.0745604   -1.1470078  0.076259903   -2.0745604   0.92755251   507524 
 1170000    1.0185923   -2.0741824   -2.0741824   -1.1474136  0.087849614   -2.0741824    0.9267688   507524 
 1171000    1.0195423   -2.0753978   -2.0753978   -1.1477646  0.078238351   -2.0753978   0.92763319   507524 
 1172000    1.0175707   -2.0733874   -2.0733874   -1.1475481    0.0895671   -2.0733874   0.92583928   507524 
 1173000     1.019389   -2.0747918   -2.0747918   -1.1472982  0.070301788   -2.0747918   0.92749364   507524 
 1174000    1.0201436   -2.0751326   -2.0751326   -1.1469523  0.064989798   -2.0751326   0.92818029   507524 
 1175000    1.0208709   -2.0750443   -2.0750443   -1.1462023  0.066190317   -2.0750443     0.928842   507524 
 1176000    1.0194689    -2.074334    -2.074334   -1.1467676  0.077212953    -2.074334   0.92756634   507524 
 1177000    1.0194654   -2.0745975   -2.0745975   -1.1470344  0.069952545   -2.0745975   0.92756316   507524 
 1178000    1.0190921   -2.0738654   -2.0738654   -1.1466419  0.070040317   -2.0738654   0.92722358   507524 
 1179000    1.0206578   -2.0754689   -2.0754689   -1.1468208    0.0736185   -2.0754689   0.92864806   507524 
 1180000    1.0204416   -2.0751072   -2.0751072   -1.1466558  0.084053628   -2.0751072   0.92845139   507524 
 1181000    1.0222668   -2.0767448   -2.0767448   -1.1466327  0.065942219   -2.0767448   0.93011208   507524 
 1182000    1.0193126   -2.0741191   -2.0741191   -1.1466949  0.077306965   -2.0741191   0.92742414   507524 
 1183000    1.0194467   -2.0749618   -2.0749618   -1.1474157  0.068805614   -2.0749618   0.92754616   507524 
 1184000    1.0200671   -2.0758861   -2.0758861 