LAMMPS (24 Dec 2020)
OMP_NUM_THREADS environment is not set. Defaulting to 1 thread. (src/comm.cpp:94)
  using 1 OpenMP thread(s) per MPI task
# Simple rigid body system
# needed variables: startTemp, temp

units		lj
atom_style	full
dimension 	3
boundary	p p f
pair_style	lj/cut/opt 2.5

variable 	gcmcdisplace	equal 0
variable 	sigma		equal 1.0
variable 	epsilon 	equal 1.0


read_restart	restart.dat.3000000
Reading restart file ...
  restart file = 24 Dec 2020, LAMMPS = 24 Dec 2020
WARNING: Restart file used different # of processors: 48 vs. 192 (src/read_restart.cpp:697)
  restoring atom style full from restart
  orthogonal box = (0.0000000 0.0000000 0.0000000) to (80.000000 80.000000 160.00000)
  6 by 4 by 8 MPI processor grid
  restoring pair style lj/cut/opt from restart
  439061 atoms
Finding 1-2 1-3 1-4 neighbors ...
  special bond factors lj:    0        0        0       
  special bond factors coul:  0        0        0       
     0 = max # of 1-2 neighbors
     0 = max # of 1-3 neighbors
     0 = max # of 1-4 neighbors
     1 = max # of special neighbors
  special bonds CPU = 1.421 seconds
  read_restart CPU = 1.736 seconds

mass		1 1.0
mass		2 1.0
mass		3 1.0


group		solvent type 1
439061 atoms in group solvent


neighbor 	0.4 bin

pair_coeff	1 1 1.0 1.0
pair_coeff	2 2 0.0 0.0
pair_coeff	3 3 0.0 0.0
pair_coeff	2 3 0.0 0.0
pair_coeff	1 2*3 0.0 0.0

pair_modify 	shift yes


balance 	1.05 shift z 10 1.05
Balancing ...
Neighbor list info ...
  update every 1 steps, delay 10 steps, check yes
  max neighbors/atom: 2000, page size: 100000
  master list distance cutoff = 2.9
  ghost atom cutoff = 2.9
  binsize = 1.45, bins = 56 56 111
  1 neighbor lists, perpetual/occasional/extra = 1 0 0
  (1) pair lj/cut/opt, perpetual
      attributes: half, newton on
      pair build: half/bin/newton
      stencil: half/bin/3d/newton
      bin: standard
 rebalancing time: 0.026 seconds
  iteration count = 5
  initial/final maximal load/proc = 3162.0000 2575.0000
  initial/final imbalance factor  = 1.3827327 1.1260394
  x cuts: 0.0000000 0.16666667 0.33333333 0.50000000 0.66666667 0.83333333 1.0000000
  y cuts: 0.0000000 0.25000000 0.50000000 0.75000000 1.0000000
  z cuts: 0.0000000 0.097656250 0.18359375 0.27734375 0.37890625 0.47656250 0.57031250 0.67968750 1.0000000


####################### WALLS ###########################


variable       epsilonWall equal 2*${epsilon}
variable       epsilonWall equal 2*1

variable       cutoffTop   equal   0.7147*${sigma}
variable       cutoffTop   equal   0.7147*1

variable       cutoffLow   equal   3*${sigma}
variable       cutoffLow   equal   3*1


fix            topWall all wall/lj93 zhi EDGE                ${epsilonWall} ${sigma} ${cutoffTop} units box
fix            topWall all wall/lj93 zhi EDGE                2 ${sigma} ${cutoffTop} units box
fix            topWall all wall/lj93 zhi EDGE                2 1 ${cutoffTop} units box
fix            topWall all wall/lj93 zhi EDGE                2 1 0.7147 units box

fix            lowWall all wall/lj93 zlo EDGE                ${epsilonWall} ${sigma} ${cutoffLow} units box
fix            lowWall all wall/lj93 zlo EDGE                2 ${sigma} ${cutoffLow} units box
fix            lowWall all wall/lj93 zlo EDGE                2 1 ${cutoffLow} units box
fix            lowWall all wall/lj93 zlo EDGE                2 1 3 units box


###################### COMPUTES ##########################

compute        bin1 solvent chunk/atom bin/1d z upper 1.0



######################	FIXES ############################


fix 		peclet solvent ave/chunk 1000 1 1000 bin1 density/number norm 		 none ave one file density.profile

fix 		 temp solvent ave/chunk 1000 1 1000 bin1 temp norm none ave one file temp.profile

fix 		2 solvent nve

## Thermostat


region		regthermo block EDGE EDGE EDGE EDGE 0 20

group 		thermo dynamic solvent region regthermo every 1000
dynamic group thermo defined

fix 		3 thermo langevin ${startTemp} ${temp} 10 156453
fix 		3 thermo langevin 1.0 ${temp} 10 156453
fix 		3 thermo langevin 1.0 1.0 10 156453


## Evaporation

region		regevap block EDGE EDGE EDGE EDGE 140 158
fix 		gcmc solvent gcmc 100 100 0 1 780493 ${temp} ${mu} ${gcmcdisplace} region regevap
fix 		gcmc solvent gcmc 100 100 0 1 780493 1.0 ${mu} ${gcmcdisplace} region regevap
fix 		gcmc solvent gcmc 100 100 0 1 780493 1.0 -4 ${gcmcdisplace} region regevap
fix 		gcmc solvent gcmc 100 100 0 1 780493 1.0 -4 0 region regevap


#### Load balancing

fix 		bal all balance 1000 1.05 shift z 10 1.05

############### Diagnostics and computes ###################
#compute 	com cube	  rigid/local	1 mol x y z
#compute 	quat cube	  rigid/local	1 mol quatw quati quatj quatk

thermo 		1000
thermo_style 	custom step temp epair etotal press pe ke atoms

dump		1 all custom 100000 dump.lammpstrj id mol type x y z
dump 		2 all image 10000 image.*.png type type
dump 		3 all movie 1000 movie.avi type type
#dump 		com cube local 1000 dump.*.xyz c_com[*]
#dump		quat cube      local 1000 dump.*.quat c_quat[*]


restart 	1000000 restart.dat
timestep 	0.005
timer 		full
New timer settings: style=full  mode=nosync  timeout=off


run		5000000
Per MPI rank memory allocation (min/avg/max) = 9.923 | 9.986 | 10.01 Mbytes
Step Temp E_pair TotEng Press PotEng KinEng Atoms 
 3000000     1.016004   -3.1352716   -1.6112691  0.079025997   -3.1352716    1.5240025   439061 
 3001000     1.014727   -3.1356155   -1.6128002  0.073811179   -3.1356155    1.5228153   438851 
 3002000    1.0155217    -3.137402   -1.6126469  0.074829172    -3.137402     1.524755   438636 
 3003000    1.0143255   -3.1385703   -1.6147289  0.076188428   -3.1385703    1.5238413   438382 
 3004000    1.0124599   -3.1384919   -1.6166999  0.078214362   -3.1384919     1.521792   438165 
 3005000    1.0136991   -3.1419038   -1.6174838  0.069473564   -3.1419038      1.52442   437945 
 3006000    1.0116161   -3.1399737   -1.6177929  0.077830002   -3.1399737    1.5221808   437688 
 3007000     1.009761   -3.1400673   -1.6197123  0.076006327   -3.1400673     1.520355   437410 
 3008000    1.0101678   -3.1425062   -1.6206654  0.074829732   -3.1425062    1.5218408   437159 
 3009000    1.0090827   -3.1415086   -1.6206137  0.075914626   -3.1415086    1.5208949   436961 
 3010000    1.0091529   -3.1430099   -1.6212535  0.072343851   -3.1430099    1.5217565   436744 
 3011000    1.0080749   -3.1437601   -1.6228665  0.071057415   -3.1437601    1.5208936   436525 
 3012000    1.0064372   -3.1432181   -1.6239008  0.076294942   -3.1432181    1.5193173   436268 
 3013000    1.0058242   -3.1440199   -1.6248724    0.0753261   -3.1440199    1.5191475   436051 
 3014000     1.006019   -3.1455443   -1.6253461  0.076256654   -3.1455443    1.5201982   435834 
 3015000    1.0033026   -3.1448929   -1.6280442  0.068322145   -3.1448929    1.5168487   435617 
 3016000    1.0034974   -3.1456304   -1.6275602   0.07444778   -3.1456304    1.5180702   435351 
 3017000    1.0027201   -3.1462562   -1.6286543  0.071289484   -3.1462562     1.517602   435148 
 3018000    1.0020894   -3.1468773   -1.6293825     0.068965   -3.1468773    1.5174948   434905 
 3019000    1.0031334   -3.1487329   -1.6290038  0.078002187   -3.1487329    1.5197291   434718 
 3020000    1.0026441   -3.1488973   -1.6290949  0.073650339   -3.1488973    1.5198024   434485 
 3021000    0.9997995   -3.1465067   -1.6301784  0.074458637   -3.1465067    1.5163282   434245 
 3022000   0.99952402   -3.1477679   -1.6311135  0.069851438   -3.1477679    1.5166544   434032 
 3023000   0.99947529   -3.1481809   -1.6308278  0.071087879   -3.1481809     1.517353   433811 
 3024000   0.99938234   -3.1502325   -1.6321318   0.06842232   -3.1502325    1.5181008   433557 
 3025000   0.99740817   -3.1510249   -1.6351748  0.067524049   -3.1510249    1.5158501   433343 
 3026000   0.99614154   -3.1508142   -1.6359173  0.069599559   -3.1508142     1.514897   433065 
 3027000   0.99514942   -3.1527326   -1.6384668  0.067275762   -3.1527326    1.5142658   432814 
 3028000   0.99298482   -3.1502863   -1.6385039  0.069259693   -3.1502863    1.5117824   432582 
 3029000   0.99189896   -3.1496658   -1.6387297  0.066504504   -3.1496658    1.5109361   432351 
 3030000   0.99299538    -3.151805   -1.6383971  0.066582552    -3.151805    1.5134078   432122 
 3031000   0.99176502   -3.1522951   -1.6398875  0.065223567   -3.1522951    1.5124077   431872 
 3032000   0.99029738   -3.1533048   -1.6423306  0.067073851   -3.1533048    1.5109743   431642 
 3033000   0.99000282   -3.1532479   -1.6419318  0.061815104   -3.1532479    1.5113161   431416 
 3034000   0.98955536   -3.1545318    -1.643086  0.063122386   -3.1545318    1.5114458   431184 
 3035000   0.98862223   -3.1546715   -1.6438661  0.066391296   -3.1546715    1.5108054   430960 
 3036000   0.98872056   -3.1554629   -1.6436968    0.0673626   -3.1554629     1.511766   430729 
 3037000   0.98471716   -3.1519017    -1.645358  0.061127124   -3.1519017    1.5065437   430472 
 3038000    0.9860477   -3.1569682   -1.6474912   0.06088621   -3.1569682     1.509477   430216 
 3039000   0.98750628   -3.1621141   -1.6494479  0.058366372   -3.1621141    1.5126662   429944 
 3040000   0.98585367   -3.1617771   -1.6508481  0.059396471   -3.1617771     1.510929   429718 
 3041000   0.98465593   -3.1618256   -1.6519522  0.064490599   -3.1618256    1.5098733   429496 
 3042000   0.98428139   -3.1616584   -1.6517336  0.062791295   -3.1616584    1.5099248   429318 
 3043000   0.98380852    -3.161584   -1.6516777  0.061385016    -3.161584    1.5099063   429117 
 3044000   0.98252714   -3.1615397   -1.6527738  0.059432464   -3.1615397    1.5087659   428882 
 3045000   0.98153101   -3.1625916   -1.6544657  0.064656604   -3.1625916    1.5081259   428629 
 3046000    0.9813853   -3.1651432   -1.6563012  0.062731646   -3.1651432    1.5088419   428362 
 3047000   0.98157157    -3.167163   -1.6572311  0.058902057    -3.167163     1.509932   428134 
 3048000   0.97922278   -3.1665529   -1.6594878  0.062399078   -3.1665529    1.5070651   427922 
 3049000   0.97992228   -3.1690148   -1.6600938  0.062056467   -3.1690148     1.508921   427701 
 3050000   0.98030556   -3.1704308   -1.6600156  0.063688885   -3.1704308    1.5104152   427445 
 3051000   0.97826452    -3.169805   -1.6616949  0.063372307    -3.169805    1.5081102   427207 
 3052000   0.97697018   -3.1726982   -1.6655779  0.056102748   -3.1726982    1.5071202   426922 
 3053000   0.97609416   -3.1727169   -1.6659705  0.055650207   -3.1727169    1.5067465   426645 
 3054000   0.97425209   -3.1710299   -1.6663369  0.059433149   -3.1710299     1.504693   426421 
 3055000   0.97412903   -3.1724532   -1.6670924  0.059509539   -3.1724532    1.5053608   426178 
 3056000    0.9755464   -3.1750723   -1.6667958  0.057393988   -3.1750723    1.5082766   425973 
 3057000   0.97405609   -3.1743624   -1.6676294  0.060916152   -3.1743624    1.5067329   425758 
 3058000   0.97439447   -3.1773054   -1.6693194  0.063574275   -3.1773054     1.507986   425552 
 3059000   0.97283199   -3.1762804   -1.6699373  0.063906169   -3.1762804    1.5063431   425333 
 3060000   0.97206598   -3.1774205     -1.67152  0.061893205   -3.1774205    1.5059005   425123 
 3061000    0.9716448    -3.177801   -1.6717949  0.059142035    -3.177801    1.5060061   424909 
 3062000   0.97007323   -3.1776904   -1.6732102   0.05669664   -3.1776904    1.5044802   424652 
 3063000   0.96890664   -3.1767841   -1.6733414   0.05720877   -3.1767841    1.5034428   424434 
 3064000   0.96900429   -3.1784904    -1.674166  0.058053092   -3.1784904    1.5043244   424228 
 3065000    0.9679199   -3.1798386   -1.6764676  0.056351701   -3.1798386     1.503371   424022 
 3066000   0.96767585   -3.1815507   -1.6776898  0.059340543   -3.1815507    1.5038609   423777 
 3067000   0.96475858   -3.1782012   -1.6781201  0.057896823   -3.1782012    1.5000811   423564 
 3068000   0.96520997   -3.1797519   -1.6781393  0.058901935   -3.1797519    1.5016125   423330 
 3069000   0.96569888   -3.1821147   -1.6788716  0.053365592   -3.1821147    1.5032431   423085 
 3070000   0.96367624   -3.1815516   -1.6804245  0.058864739   -3.1815516    1.5011271   422794 
 3071000   0.96318678   -3.1822049   -1.6810484  0.051314608   -3.1822049    1.5011564   422571 
 3072000   0.96211707   -3.1816596   -1.6813644   0.05458829   -3.1816596    1.5002952   422344 
 3073000   0.96135525   -3.1825479   -1.6826274  0.051587337   -3.1825479    1.4999205   422115 
 3074000   0.95978081   -3.1824854   -1.6841836  0.052032143   -3.1824854    1.4983018   421879 
 3075000   0.95923567   -3.1836761    -1.685611  0.053820813   -3.1836761    1.4980651   421706 
 3076000   0.95888833   -3.1847208   -1.6864023  0.048762327   -3.1847208    1.4983185   421482 
 3077000   0.95804924   -3.1856435    -1.687833  0.055965144   -3.1856435    1.4978105   421256 
 3078000    0.9583132   -3.1880471   -1.6891692  0.052637391   -3.1880471    1.4988778   421072 
 3079000   0.95818983   -3.1879184    -1.688589  0.051715557   -3.1879184    1.4993294   420891 
 3080000   0.95714956   -3.1870915   -1.6887563  0.053752443   -3.1870915    1.4983353   420713 
 3081000   0.95682821   -3.1890077   -1.6903562  0.048183659   -3.1890077    1.4986515   420483 
 3082000    0.9565222   -3.1898866   -1.6910193  0.055005702   -3.1898866    1.4988673   420288 
 3083000   0.95414566   -3.1901771   -1.6942009  0.052708143   -3.1901771    1.4959762   420054 
 3084000   0.95303189   -3.1906982   -1.6956746  0.049914768   -3.1906982    1.4950237   419831 
 3085000   0.95420933   -3.1932512   -1.6956313  0.052787121   -3.1932512    1.4976198   419621 
 3086000   0.95494573   -3.1960475    -1.696543  0.049328714   -3.1960475    1.4995046   419417 
 3087000   0.95323452   -3.1958814   -1.6980818  0.056883166   -3.1958814    1.4977996   419142 
 3088000   0.95485234   -3.2003956   -1.6993628  0.052415324   -3.2003956    1.5010328   418949 
 3089000   0.95120685   -3.1979336    -1.701903  0.049402207   -3.1979336    1.4960306   418745 
 3090000   0.95033453   -3.1973203    -1.701901  0.050993428   -3.1973203    1.4954193   418532 
 3091000   0.95029525    -3.199781     -1.70368  0.054117235    -3.199781     1.496101   418324 
 3092000   0.95036757   -3.2024843   -1.7055073  0.051937326   -3.2024843    1.4969771   418111 
 3093000   0.94938516   -3.2026666   -1.7064282  0.052056171   -3.2026666    1.4962384   417885 
 3094000   0.94905274   -3.2043327   -1.7078555  0.048741739   -3.2043327    1.4964772   417672 
 3095000   0.94833281   -3.2052814   -1.7089864  0.049541003   -3.2052814     1.496295   417406 
 3096000   0.94823294   -3.2072304   -1.7102215  0.048414159   -3.2072304    1.4970089   417163 
 3097000    0.9483915   -3.2087576   -1.7106329  0.049410638   -3.2087576    1.4981247   416922 
 3098000   0.94691523    -3.210913   -1.7143521  0.049048564    -3.210913    1.4965609   416708 
 3099000   0.94627668    -3.211526   -1.7153998  0.043776906    -3.211526    1.4961262   416548 
 3100000   0.94624298   -3.2112115   -1.7144487  0.047416639   -3.2112115    1.4967628   416356 
 3101000   0.94466411   -3.2118823   -1.7168198   0.04900733   -3.2118823    1.4950625   416134 
 3102000   0.94270905   -3.2118445   -1.7190941  0.047254264   -3.2118445    1.4927503   415916 
 3103000   0.94339286   -3.2143605   -1.7197907  0.045604682   -3.2143605    1.4945698   415711 
 3104000   0.94154423   -3.2151322   -1.7226797  0.043084609   -3.2151322    1.4924525   415485 
 3105000    0.9421823     -3.21738   -1.7230457  0.045816549     -3.21738    1.4943343   415243 
 3106000   0.94275112   -3.2189174   -1.7229965  0.047641176   -3.2189174    1.4959209   415053 
 3107000   0.94036305   -3.2178583   -1.7250073   0.04696159   -3.2178583     1.492851   414853 
 3108000   0.93996338   -3.2188008   -1.7257709   0.05184769   -3.2188008    1.4930298   414627 
 3109000   0.93997523   -3.2192182   -1.7255175  0.047570304   -3.2192182    1.4937007   414446 
 3110000   0.93873559   -3.2196853   -1.7272739  0.051335719   -3.2196853    1.4924114   414257 
 3111000   0.93896542   -3.2205453   -1.7270078  0.051533144   -3.2205453    1.4935375   414046 
 3112000   0.93760238   -3.2211507   -1.7290425  0.048480547   -3.2211507    1.4921082   413841 
 3113000   0.93853436    -3.222909   -1.7285666  0.048856476    -3.222909    1.4943424   413633 
 3114000   0.93707682   -3.2250913   -1.7323911  0.047267649   -3.2250913    1.4927002   413445 
 3115000   0.93566519    -3.225102   -1.7339147  0.043119117    -3.225102    1.4911873   413241 
 3116000    0.9333898   -3.2222335   -1.7338838  0.049770425   -3.2222335    1.4883497   413022 
 3117000   0.93634463   -3.2284064   -1.7344986  0.043238147   -3.2284064    1.4939078   412788 
 3118000   0.93556908    -3.229134   -1.7356568   0.04494654    -3.229134    1.4934772   412565 
 3119000   0.93488927   -3.2269443   -1.7339407  0.045702998   -3.2269443    1.4930036   412396 
 3120000   0.93359374   -3.2259421   -1.7344106  0.045879806   -3.2259421    1.4915315   412231 
 3121000   0.93271721   -3.2265048   -1.7358024   0.04746236   -3.2265048    1.4907024   412073 
 3122000   0.93133472   -3.2270817   -1.7378624  0.045131723   -3.2270817    1.4892193   411872 
 3123000   0.93130947   -3.2271912   -1.7372815   0.04213111   -3.2271912    1.4899096   411670 
 3124000   0.93119563   -3.2298852   -1.7392343  0.045078645   -3.2298852    1.4906509   411415 
 3125000   0.92923424   -3.2298896   -1.7416152   0.04101275   -3.2298896    1.4882744   411204 
 3126000   0.92759248    -3.229627   -1.7433713  0.045625134    -3.229627    1.4862557   411035 
 3127000   0.92931613   -3.2331194   -1.7433516  0.043022606   -3.2331194    1.4897678   410828 
 3128000   0.92843362   -3.2330326   -1.7438966  0.045373974   -3.2330326     1.489136   410612 
 3129000   0.92675816   -3.2329754   -1.7459002  0.042330182   -3.2329754    1.4870752   410439 
 3130000   0.92620248   -3.2322709    -1.745515  0.040046849   -3.2322709    1.4867559   410281 
 3131000   0.92529693    -3.232664   -1.7467279  0.037851765    -3.232664    1.4859361   410106 
 3132000   0.92583255   -3.2339172   -1.7462975  0.040323381   -3.2339172    1.4876197   409879 
 3133000    0.9253565   -3.2359868   -1.7483735   0.03993398   -3.2359868    1.4876133   409670 
 3134000   0.92332144   -3.2341923   -1.7490857  0.041672569   -3.2341923    1.4851066   409459 
 3135000   0.92395273   -3.2371948   -1.7504192  0.040742777   -3.2371948    1.4867756   409279 
 3136000   0.92327897   -3.2364395   -1.7500944  0.046703298   -3.2364395    1.4863451   409099 
 3137000   0.92300291   -3.2368647   -1.7504044  0.043815603   -3.2368647    1.4864603   408945 
 3138000   0.92406431   -3.2392572    -1.750414  0.038591794   -3.2392572    1.4888431   408760 
 3139000   0.92246932   -3.2377325   -1.7507863   0.04684396   -3.2377325    1.4869463   408575 
 3140000   0.92335061   -3.2420019   -1.7526983  0.038286397   -3.2420019    1.4893036   408318 
 3141000   0.92300391   -3.2429184    -1.753583  0.044729856   -3.2429184    1.4893353   408156 
 3142000   0.92195827   -3.2435867   -1.7552203  0.040061906   -3.2435867    1.4883665   407959 
 3143000   0.92089206   -3.2418484    -1.754536  0.046839865   -3.2418484    1.4873124   407776 
 3144000   0.92042256   -3.2416755   -1.7546108  0.046175048   -3.2416755    1.4870647   407636 
 3145000   0.91965173   -3.2427617     -1.75637   0.04094665   -3.2427617    1.4863918   407479 
 3146000    0.9182129   -3.2436111   -1.7588744  0.039624721   -3.2436111    1.4847367   407295 
 3147000   0.91674294   -3.2428025   -1.7600568  0.040285209   -3.2428025    1.4827457   407189 
 3148000    0.9161552   -3.2445184   -1.7619696  0.038593426   -3.2445184    1.4825487   406982 
 3149000   0.91585568   -3.2467954     -1.76405  0.034846216   -3.2467954    1.4827453   406795 
 3150000   0.91493494    -3.246338   -1.7645297  0.036369042    -3.246338    1.4818084   406643 
 3151000   0.91291924   -3.2441877   -1.7650182  0.033873419   -3.2441877    1.4791694   406471 
 3152000   0.91476269   -3.2477193   -1.7648005  0.034933639   -3.2477193    1.4829188   406262 
 3153000   0.91462355   -3.2491942   -1.7657963  0.043482197   -3.2491942     1.483398   406069 
 3154000   0.91225909   -3.2473556   -1.7672056  0.036732543   -3.2473556      1.48015   405908 
 3155000   0.91338843   -3.2496774   -1.7670924   0.03817916   -3.2496774     1.482585   405743 
 3156000   0.91340487    -3.252331   -1.7691601  0.043961855    -3.252331     1.483171   405590 
 3157000     0.912797   -3.2524299   -1.7698073   0.03762543   -3.2524299    1.4826226   405470 
 3158000   0.91275881   -3.2529709   -1.7697519  0.044289643   -3.2529709     1.483219   405290 
 3159000   0.91310132   -3.2535148   -1.7690836  0.038541779   -3.2535148    1.4844312   405111 
 3160000   0.91419661   -3.2552145   -1.7682869  0.040033308   -3.2552145    1.4869275   404916 
 3161000   0.91247972   -3.2549544   -1.7703501   0.04018628   -3.2549544    1.4846043   404788 
 3162000   0.91055194    -3.253543   -1.7715553   0.03978112    -3.253543    1.4819877   404646 
 3163000   0.91130883   -3.2557003    -1.771894  0.042470786   -3.2557003    1.4838063   404486 
 3164000   0.91157607   -3.2598205   -1.7748632  0.039578438   -3.2598205    1.4849573   404291 
 3165000    0.9098546     -3.25958    -1.776642  0.044729064     -3.25958     1.482938   404077 
 3166000   0.90845342   -3.2589174   -1.7776253  0.041559102   -3.2589174    1.4812921   403903 
 3167000    0.9080642   -3.2592566   -1.7778692  0.037181954   -3.2592566    1.4813874   403704 
 3168000   0.90696311   -3.2600686   -1.7798615  0.037524386   -3.2600686    1.4802071   403536 
 3169000   0.90636899   -3.2616017   -1.7818326  0.042487563   -3.2616017    1.4797691   403391 
 3170000   0.90653878    -3.262011   -1.7812562  0.036358556    -3.262011    1.4807548   403198 
 3171000   0.90708532   -3.2653082   -1.7830357   0.03362903   -3.2653082    1.4822725   403028 
 3172000   0.90430264    -3.262558   -1.7843119  0.041220221    -3.262558    1.4782461   402886 
 3173000   0.90530429   -3.2653471   -1.7849822  0.038072064   -3.2653471    1.4803649   402755 
 3174000   0.90312454   -3.2626267   -1.7853016  0.041106676   -3.2626267     1.477325   402612 
 3175000   0.90334408   -3.2644046   -1.7860227  0.041252226   -3.2644046    1.4783818   402422 
 3176000   0.90344182   -3.2659979   -1.7868496  0.040299041   -3.2659979    1.4791483   402257 
 3177000   0.90331103   -3.2662349   -1.7867895  0.034729703   -3.2662349    1.4794454   402118 
 3178000   0.90287304   -3.2680127   -1.7886519  0.036285037   -3.2680127    1.4793608   401946 
 3179000   0.90343226   -3.2702824   -1.7894085  0.038396327   -3.2702824    1.4808739   401784 
 3180000   0.90040436   -3.2664849   -1.7899715  0.037027297   -3.2664849    1.4765134   401620 
 3181000   0.90216728   -3.2712671   -1.7912806  0.036247623   -3.2712671    1.4799865   401462 
 3182000    0.9003381   -3.2702616   -1.7929078    0.0389253   -3.2702616    1.4773538   401362 
 3183000   0.89962134   -3.2700999   -1.7933777  0.039092308   -3.2700999    1.4767222   401214 
 3184000   0.89909946   -3.2697956   -1.7935401  0.034162367   -3.2697956    1.4762556   401108 
 3185000   0.89996531   -3.2731447   -1.7948815  0.036009724   -3.2731447    1.4782632   400949 
 3186000   0.89931325    -3.274398    -1.796594   0.03776377    -3.274398     1.477804   400783 
 3187000   0.89828763   -3.2744572   -1.7978375  0.040095012   -3.2744572    1.4766197   400647 
 3188000   0.89894942   -3.2761384   -1.7978552  0.034201552   -3.2761384    1.4782831   400491 
 3189000   0.89814075   -3.2753123   -1.7977207  0.036977901   -3.2753123    1.4775916   400318 
 3190000   0.89764259   -3.2761528   -1.7988124  0.035836019   -3.2761528    1.4773404   400164 
 3191000   0.89654052   -3.2773989   -1.8014444  0.030738471   -3.2773989    1.4759544   400048 
 3192000   0.89601961   -3.2772334   -1.8016238  0.034699772   -3.2772334    1.4756096   399909 
 3193000   0.89657698   -3.2786085   -1.8014716  0.037987113   -3.2786085    1.4771369   399744 
 3194000   0.89598732    -3.278238   -1.8016256  0.039187269    -3.278238    1.4766124   399623 
 3195000   0.89362784    -3.277326   -1.8041044  0.036457312    -3.277326    1.4732216   399488 
 3196000   0.89326991   -3.2784887   -1.8054257  0.033524471   -3.2784887     1.473063   399371 
 3197000    0.8950713   -3.2824569   -1.8059206  0.033013014   -3.2824569    1.4765364   399235 
 3198000   0.89509693   -3.2844405   -1.8073439  0.035837037   -3.2844405    1.4770967   399095 
 3199000   0.89348675   -3.2839952   -1.8090937  0.033925165   -3.2839952    1.4749015   398970 
 3200000   0.89248338   -3.2838684   -1.8100949  0.033991363   -3.2838684    1.4737734   398827 
 3201000   0.89157128   -3.2834084   -1.8105429   0.03362552   -3.2834084    1.4728655   398665 
 3202000   0.89051601   -3.2836593    -1.811987   0.03629669   -3.2836593    1.4716722   398516 
 3203000   0.89233141   -3.2860865    -1.811007  0.035339798   -3.2860865    1.4750795   398406 
 3204000   0.89269913   -3.2866688   -1.8106405  0.036387905   -3.2866688    1.4760283   398314 
 3205000   0.89143466   -3.2866201    -1.812068  0.036756994   -3.2866201    1.4745521   398148 
 3206000   0.89138609   -3.2870326   -1.8120904  0.036354535   -3.2870326    1.4749422   398021 
 3207000   0.89063455   -3.2882124   -1.8140396  0.030417392   -3.2882124    1.4741727   397893 
 3208000   0.89037704   -3.2888643    -1.814688  0.032778114   -3.2888643    1.4741763   397777 
 3209000   0.88878153   -3.2890169   -1.8169123  0.027587874   -3.2890169    1.4721046   397623 
 3210000   0.88817789   -3.2893101   -1.8175613  0.039363221   -3.2893101    1.4717488   397449 
 3211000    0.8898509   -3.2934707   -1.8185564  0.036966033   -3.2934707    1.4749144   397343 
 3212000   0.88785936   -3.2908845   -1.8186523  0.030708226   -3.2908845    1.4722322   397176 
 3213000    0.8870831   -3.2908948     -1.81942  0.038315716   -3.2908948    1.4714748   397033 
 3214000   0.88625775   -3.2909669     -1.82035  0.036267421   -3.2909669    1.4706169   396895 
 3215000   0.88692257   -3.2937338   -1.8216466  0.031982929   -3.2937338    1.4720873   396796 
 3216000   0.88661077   -3.2953655   -1.8233358  0.035503307   -3.2953655    1.4720298   396672 
 3217000       0.8852   -3.2953246   -1.8250812   0.03145223   -3.2953246    1.4702434   396522 
 3218000   0.88637322   -3.2973245   -1.8247685  0.030336535   -3.2973245     1.472556   396424 
 3219000   0.88514781   -3.2971664    -1.826097   0.03731586   -3.2971664    1.4710694   396276 
 3220000   0.88421277   -3.2965784   -1.8264842  0.036943074   -3.2965784    1.4700941   396120 
 3221000   0.88508777   -3.2995808   -1.8276269   0.03140188   -3.2995808     1.471954   396011 
 3222000    0.8836093   -3.2991135   -1.8291543  0.038133015   -3.2991135    1.4699591   395886 
 3223000   0.88502706   -3.3005529   -1.8278483   0.03563134   -3.3005529    1.4727046   395782 
 3224000    0.8846804   -3.3011314   -1.8284009  0.036279304   -3.3011314    1.4727306   395620 
 3225000   0.88184769   -3.2986855   -1.8301509  0.033096664   -3.2986855    1.4685346   395480 
 3226000   0.88318957   -3.3015353   -1.8302899  0.034397195   -3.3015353    1.4712454   395352 
 3227000   0.88139031   -3.3012163    -1.832645  0.030995779   -3.3012163    1.4685713   395265 
 3228000   0.88164109   -3.3015276   -1.8321667  0.033948594   -3.3015276    1.4693609   395165 
 3229000   0.87827762   -3.2979683   -1.8336757   0.03746802   -3.2979683    1.4642926   395020 
 3230000   0.88077926   -3.3024455   -1.8336177  0.032532154   -3.3024455    1.4688278   394922 
 3231000   0.88013571   -3.3014441   -1.8332694  0.038491143   -3.3014441    1.4681747   394809 
 3232000   0.87989679   -3.3034277   -1.8351383  0.033495549   -3.3034277    1.4682893   394671 
 3233000   0.87925682   -3.3022015    -1.834597  0.033338047   -3.3022015    1.4676044   394568 
 3234000   0.87875138   -3.3017181   -1.8346152  0.032640605   -3.3017181    1.4671029   394476 
 3235000    0.8769295   -3.3020837   -1.8374508  0.031752906   -3.3020837     1.464633   394322 
 3236000    0.8761615   -3.3032883   -1.8394257  0.032658197   -3.3032883    1.4638626   394184 
 3237000   0.87654578   -3.3047398   -1.8399862  0.028876577   -3.3047398    1.4647536   394117 
 3238000   0.87790212   -3.3057829   -1.8383197  0.032241312   -3.3057829    1.4674632   393998 
 3239000   0.87827119   -3.3067693   -1.8383016  0.031031516   -3.3067693    1.4684677   393894 
 3240000   0.87691931    -3.307748   -1.8411125  0.034044982    -3.307748    1.4666356   393779 
 3241000   0.87753214   -3.3092199   -1.8410896  0.032680874   -3.3092199    1.4681303   393653 
 3242000   0.87606571   -3.3077719   -1.8417412  0.030465872   -3.3077719    1.4660307   393558 
 3243000    0.8749316   -3.3082928   -1.8436836  0.034327879   -3.3082928    1.4646092   393430 
 3244000   0.87505767   -3.3101986   -1.8449761  0.028329992   -3.3101986    1.4652225   393322 
 3245000   0.87570417   -3.3109628   -1.8444378  0.032380301   -3.3109628     1.466525   393263 
 3246000   0.87668621   -3.3125557   -1.8438969  0.027327812   -3.3125557    1.4686588   393132 
 3247000   0.87493587   -3.3103108   -1.8442449  0.031817403   -3.3103108    1.4660659   393041 
 3248000   0.87418875   -3.3112002   -1.8459239  0.029926204   -3.3112002    1.4652763   392917 
 3249000   0.87493287    -3.313783   -1.8467255  0.031047946    -3.313783    1.4670575   392774 
 3250000   0.87401712   -3.3151754   -1.8492728  0.028391948   -3.3151754    1.4659027   392672 
 3251000   0.87411894   -3.3167929   -1.8503199   0.03419929   -3.3167929    1.4664731   392565 
 3252000   0.87382344   -3.3156657   -1.8492887   0.03296685   -3.3156657     1.466377   392458 
 3253000   0.87300043   -3.3156199   -1.8501311  0.028408285   -3.3156199    1.4654888   392326 
 3254000   0.87330962   -3.3175391   -1.8510266  0.028067151   -3.3175391    1.4665124   392191 
 3255000   0.87258716   -3.3174658   -1.8518078  0.032660853   -3.3174658     1.465658   392095 
 3256000   0.87221347   -3.3191236   -1.8538579  0.026127178   -3.3191236    1.4652658   392032 
 3257000   0.87069772   -3.3184336   -1.8553223  0.034394326   -3.3184336    1.4631113   391927 
 3258000   0.87137872   -3.3207529   -1.8559629   0.02900998   -3.3207529    1.4647901   391784 
 3259000   0.87142623   -3.3220804   -1.8568102  0.034482364   -3.3220804    1.4652701   391677 
 3260000   0.87128812   -3.3226618   -1.8572759  0.034342108   -3.3226618    1.4653858   391584 
 3261000   0.87074604   -3.3246763   -1.8599104  0.034610359   -3.3246763    1.4647659   391506 
 3262000   0.87101285   -3.3276696   -1.8619532  0.031396168   -3.3276696    1.4657164   391372 
 3263000   0.86909936    -3.326098   -1.8632129  0.030886069    -3.326098    1.4628852   391268 
 3264000   0.87008176   -3.3282728   -1.8632398  0.034093567   -3.3282728     1.465033   391136 
 3265000   0.87042413    -3.331009   -1.8649085  0.031164889    -3.331009    1.4661005   391005 
 3266000   0.87053527   -3.3306598   -1.8641358   0.02659898   -3.3306598     1.466524   390942 
 3267000   0.86867646    -3.330384   -1.8666844  0.031696323    -3.330384    1.4636996   390860 
 3268000   0.86888582   -3.3331367   -1.8687059  0.028408772   -3.3331367    1.4644308   390759 
 3269000   0.86691826   -3.3299972   -1.8685497  0.035958809   -3.3299972    1.4614475   390670 
 3270000   0.86972031   -3.3328409   -1.8663844  0.034094026   -3.3328409    1.4664565   390594 
 3271000   0.86981047   -3.3338831   -1.8669967  0.033334129   -3.3338831    1.4668864   390520 
 3272000    0.8677037   -3.3319831   -1.8682599  0.035855295   -3.3319831    1.4637233   390416 
 3273000   0.86919437   -3.3365921   -1.8698019  0.028250532   -3.3365921    1.4667901   390269 
 3274000   0.86763227   -3.3358662    -1.871258  0.032228721   -3.3358662    1.4646081   390148 
 3275000   0.86654491   -3.3333754   -1.8702428  0.030504348   -3.3333754    1.4631326   390052 
 3276000   0.86690781   -3.3362366   -1.8722209  0.032403353   -3.3362366    1.4640156   389980 
 3277000    0.8658892   -3.3360291   -1.8734224    0.0317588   -3.3360291    1.4626067   389897 
 3278000   0.86564659   -3.3368003   -1.8742508  0.031189751   -3.3368003    1.4625495   389803 
 3279000   0.86450883   -3.3352709   -1.8742313  0.033725103   -3.3352709    1.4610395   389693 
 3280000   0.86503748   -3.3370898   -1.8747328  0.030793368   -3.3370898     1.462357   389580 
 3281000    0.8633876   -3.3358517   -1.8758679  0.031565096   -3.3358517    1.4599838   389469 
 3282000   0.86258267   -3.3345331    -1.875682  0.029405661   -3.3345331    1.4588512   389408 
 3283000   0.86366796   -3.3376143   -1.8765712  0.028434389   -3.3376143    1.4610431   389313 
 3284000   0.86228925   -3.3369208   -1.8776965  0.028264421   -3.3369208    1.4592243   389176 
 3285000   0.86360881   -3.3408085   -1.8789567  0.028347341   -3.3408085    1.4618518   389071 
 3286000   0.86202657   -3.3386809   -1.8790198  0.028294775   -3.3386809    1.4596612   388941 
 3287000    0.8608493    -3.338298   -1.8801766  0.028593778    -3.338298    1.4581214   388820 
 3288000   0.86242838   -3.3413606   -1.8801851  0.028465467   -3.3413606    1.4611756   388719 
 3289000   0.86075727   -3.3395517   -1.8808546  0.028379692   -3.3395517     1.458697   388625 
 3290000   0.86122519   -3.3405694   -1.8808015  0.028732776   -3.3405694     1.459768   388551 
 3291000   0.85980177   -3.3383874   -1.8806345  0.030223654   -3.3383874     1.457753   388445 
 3292000   0.86048178   -3.3420943   -1.8826737  0.031418444   -3.3420943    1.4594206   388308 
 3293000   0.86031205   -3.3413525   -1.8818815  0.030168677   -3.3413525     1.459471   388218 
 3294000    0.8607901    -3.344962   -1.8842059  0.032587606    -3.344962    1.4607561   388092 
 3295000   0.86014372    -3.345705   -1.8856282    0.0311357    -3.345705    1.4600768   387981 
 3296000   0.85985646   -3.3467681   -1.8866822  0.032541846   -3.3467681    1.4600859   387849 
 3297000   0.85962499   -3.3475783   -1.8874375  0.035337726   -3.3475783    1.4601409   387730 
 3298000   0.85877368   -3.3471738   -1.8881365  0.032524936   -3.3471738    1.4590373   387639 
 3299000   0.85838679   -3.3463524   -1.8876789  0.037787999   -3.3463524    1.4586735   387561 
 3300000   0.85924222   -3.3481031   -1.8876331  0.032617754   -3.3481031    1.4604701   387470 
 3301000    0.8593834   -3.3497134   -1.8887017  0.031767034   -3.3497134    1.4610117   387390 
 3302000   0.85926856   -3.3511172   -1.8899424  0.031286843   -3.3511172    1.4611748   387295 
 3303000   0.85831236    -3.351094   -1.8910061  0.035442094    -3.351094    1.4600879   387152 
 3304000   0.85712963   -3.3501554   -1.8918648  0.031232003   -3.3501554    1.4582906   387095 
 3305000   0.85633395   -3.3509724   -1.8937833  0.027054073   -3.3509724    1.4571891   387028 
 3306000   0.85625083   -3.3523688   -1.8949295  0.027294716   -3.3523688    1.4574393   386924 
 3307000   0.85671735   -3.3523821   -1.8937002  0.033111221   -3.3523821     1.458682   386805 
 3308000   0.85433493   -3.3504405   -1.8953184  0.027594839   -3.3504405    1.4551221   386673 
 3309000    0.8550164   -3.3529126   -1.8963849  0.027667013   -3.3529126    1.4565277   386608 
 3310000   0.85608797   -3.3556387   -1.8969611   0.03078656   -3.3556387    1.4586776   386522 
 3311000   0.85431252   -3.3534342   -1.8973599  0.030761519   -3.3534342    1.4560743   386410 
 3312000   0.85560539   -3.3558354   -1.8972178  0.031758879   -3.3558354    1.4586176   386320 
 3313000   0.85382635   -3.3542881   -1.8982774  0.033309562   -3.3542881    1.4560106   386207 
 3314000   0.85428852   -3.3543215   -1.8973567  0.033004661   -3.3543215    1.4569648   386163 
 3315000   0.85404383    -3.356078   -1.8992627  0.026460856    -3.356078    1.4568153   386092 
 3316000   0.85287107   -3.3553308   -1.9002447  0.028320033   -3.3553308    1.4550862   386020 
 3317000   0.85337784   -3.3567076   -1.9003117  0.028967277   -3.3567076    1.4563959   385902 
 3318000   0.85280943   -3.3555748   -1.8997603  0.031565735   -3.3555748    1.4558145   385799 
 3319000   0.85164467   -3.3551639   -1.9008552  0.031833272   -3.3551639    1.4543086   385671 
 3320000   0.85239979    -3.358802   -1.9028679  0.028548111    -3.358802    1.4559341   385582 
 3321000   0.85218904   -3.3606146   -1.9046817  0.022161291   -3.3606146    1.4559328   385487 
 3322000   0.85143369   -3.3603045   -1.9053074  0.026977029   -3.3603045    1.4549971   385393 
 3323000   0.85184291   -3.3609137   -1.9047071  0.033728718   -3.3609137    1.4562065   385258 
 3324000   0.85233398   -3.3622185   -1.9050363  0.024903236   -3.3622185    1.4571822   385222 
 3325000   0.85248987   -3.3620271   -1.9045216  0.027679167   -3.3620271    1.4575054   385207 
 3326000   0.85247766   -3.3631687   -1.9054533  0.032670288   -3.3631687    1.4577154   385146 
 3327000   0.85217917   -3.3616769   -1.9041502  0.020384675   -3.3616769    1.4575267   385061 
 3328000    0.8505349   -3.3603699    -1.905357  0.029845038   -3.3603699    1.4550129   384982 
 3329000   0.85083109   -3.3619751   -1.9061302  0.030726462   -3.3619751    1.4558448   384896 
 3330000   0.85134705   -3.3630472   -1.9060053  0.026128344   -3.3630472    1.4570419   384813 
 3331000   0.85134827   -3.3632581   -1.9058506  0.030533282   -3.3632581    1.4574075   384717 
 3332000   0.85105916   -3.3621605   -1.9049107  0.033162026   -3.3621605    1.4572497   384628 
 3333000   0.84979924   -3.3603563   -1.9049991  0.026444428   -3.3603563    1.4553573   384558 
 3334000   0.84887628   -3.3616042   -1.9075553  0.035554441   -3.3616042    1.4540489   384486 
 3335000   0.84776576    -3.362369   -1.9099013  0.034361518    -3.362369    1.4524677   384401 
 3336000   0.85006672   -3.3656184    -1.909019   0.03088013   -3.3656184    1.4565994   384351 
 3337000   0.85045725   -3.3667092   -1.9089058  0.030864126   -3.3667092    1.4578034   384210 
 3338000   0.84876847   -3.3654162    -1.910072    0.0320266   -3.3654162    1.4553442   384095 
 3339000   0.84792765   -3.3651506    -1.910843   0.02581019   -3.3651506    1.4543076   383988 
 3340000   0.84835598   -3.3677951   -1.9123776  0.026922215   -3.3677951    1.4554175   383889 
 3341000   0.84727999   -3.3680523   -1.9141778  0.034702857   -3.3680523    1.4538745   383809 
 3342000    0.8475519   -3.3688013   -1.9141153  0.032363106   -3.3688013     1.454686   383718 
 3343000   0.84871297   -3.3734111   -1.9161285  0.028162968   -3.3734111    1.4572826   383559 
 3344000   0.84710973   -3.3715985   -1.9166552  0.030896111   -3.3715985    1.4549433   383450 
 3345000   0.84495326   -3.3701008   -1.9184638   0.02900436   -3.3701008     1.451637   383345 
 3346000   0.84608828   -3.3724184   -1.9184371  0.029594416   -3.3724184    1.4539814   383241 
 3347000   0.84541058   -3.3713129   -1.9181966  0.028768559   -3.3713129    1.4531163   383162 
 3348000   0.84635375   -3.3726955   -1.9178061  0.031044985   -3.3726955    1.4548894   383122 
 3349000   0.84549412   -3.3737644   -1.9202693  0.027301147   -3.3737644    1.4534951   383100 
 3350000   0.84286636   -3.3703575   -1.9210961  0.031070449   -3.3703575    1.4492614   383025 
 3351000   0.84331627   -3.3727093   -1.9224812  0.028600836   -3.3727093    1.4502281   382974 
 3352000   0.84254703   -3.3718251   -1.9225187  0.027842287   -3.3718251    1.4493064   382868 
 3353000   0.84207701   -3.3726482    -1.923734  0.027827983   -3.3726482    1.4489142   382758 
 3354000   0.84404055   -3.3778162   -1.9249654  0.027421046   -3.3778162    1.4528507   382611 
 3355000   0.84195212    -3.375592   -1.9260633  0.026590609    -3.375592    1.4495287   382539 
 3356000   0.84345265   -3.3783347   -1.9258544  0.023862292   -3.3783347    1.4524803   382442 
 3357000   0.84560968   -3.3807054   -1.9239963   0.02818742   -3.3807054    1.4567091   382307 
 3358000   0.84433967   -3.3781535   -1.9231527  0.033071677   -3.3781535    1.4550008   382181 
 3359000   0.84270858   -3.3772124   -1.9247526   0.03100103   -3.3772124    1.4524599   382110 
 3360000   0.84275529   -3.3793179   -1.9265304  0.033126194   -3.3793179    1.4527875   382045 
 3361000    0.8420687   -3.3791544   -1.9272426  0.025676425   -3.3791544    1.4519118   381964 
 3362000   0.84225323   -3.3799487   -1.9275515  0.033808895   -3.3799487    1.4523972   381920 
 3363000   0.84174956   -3.3802226   -1.9282947  0.027987923   -3.3802226    1.4519279   381815 
 3364000   0.84095801   -3.3806987   -1.9298588   0.02865957   -3.3806987    1.4508399   381742 
 3365000   0.84030473   -3.3800173   -1.9299663  0.033840345   -3.3800173    1.4500509   381653 
 3366000   0.84119267   -3.3833866     -1.93156  0.031357021   -3.3833866    1.4518267   381589 
 3367000   0.83965561   -3.3812974   -1.9317779  0.026072734   -3.3812974    1.4495195   381498 
 3368000   0.83825038    -3.380135   -1.9327227  0.031099314    -3.380135    1.4474123   381414 
 3369000   0.83833968   -3.3803313   -1.9325294  0.027994681   -3.3803313    1.4478019   381352 
 3370000   0.83859842   -3.3822814   -1.9336756  0.031263497   -3.3822814    1.4486058   381258 
 3371000   0.83980625   -3.3840534   -1.9331025  0.027326545   -3.3840534     1.450951   381190 
 3372000   0.83808822   -3.3829894   -1.9346115  0.031308489   -3.3829894    1.4483778   381086 
 3373000   0.83785809    -3.383947   -1.9358263  0.031154679    -3.383947    1.4481207   381049 
 3374000   0.83723599   -3.3827128   -1.9355039   0.03066047   -3.3827128    1.4472088   381006 
 3375000   0.83747974   -3.3820499   -1.9341956  0.030083281   -3.3820499    1.4478544   380947 
 3376000   0.83730938   -3.3835757   -1.9355293  0.030022747   -3.3835757    1.4480464   380819 
 3377000   0.83743829   -3.3856903   -1.9371242  0.028975198   -3.3856903     1.448566   380741 
 3378000   0.83719164   -3.3858114    -1.937284  0.032180428   -3.3858114    1.4485275   380639 
 3379000   0.83842997   -3.3881551    -1.937203  0.035192843   -3.3881551    1.4509521   380565 
 3380000   0.83693814   -3.3871349    -1.938734  0.029312507   -3.3871349    1.4484009   380557 
 3381000   0.83776753   -3.3896501   -1.9393489  0.028853511   -3.3896501    1.4503011   380435 
 3382000   0.83711435    -3.389302   -1.9398002  0.028960542    -3.389302    1.4495019   380348 
 3383000    0.8370283   -3.3890523   -1.9394174  0.030918167   -3.3890523    1.4496349   380274 
 3384000   0.83587924   -3.3872333   -1.9394552  0.031142242   -3.3872333    1.4477781   380239 
 3385000   0.83635738   -3.3902054   -1.9412295  0.030708807   -3.3902054    1.4489759   380142 
 3386000    0.8373082    -3.390973   -1.9398841  0.032114914    -3.390973    1.4510889   380020 
 3387000   0.83701112   -3.3920316   -1.9411903  0.030080593   -3.3920316    1.4508413   379950 
 3388000   0.83434925   -3.3901064   -1.9434184  0.028651158   -3.3901064     1.446688   379829 
 3389000   0.83417639   -3.3915715   -1.9449089   0.03056058   -3.3915715    1.4466625   379757 
 3390000    0.8332154   -3.3904679   -1.9453121   0.03002937   -3.3904679    1.4451558   379715 
 3391000   0.83473161   -3.3947602   -1.9466695  0.026025918   -3.3947602    1.4480906   379635 
 3392000   0.83411588   -3.3945019   -1.9470639  0.023354414   -3.3945019    1.4474381   379526 
 3393000   0.83304149   -3.3930179   -1.9473604  0.024936234   -3.3930179    1.4456575   379504 
 3394000   0.83112266   -3.3918282   -1.9492346  0.030162797   -3.3918282    1.4425936   379434 
 3395000   0.83212916   -3.3960536   -1.9513665  0.025044307   -3.3960536    1.4446871   379343 
 3396000   0.83415165   -3.3982509    -1.949663  0.031135545   -3.3982509    1.4485879   379241 
 3397000   0.83455903   -3.4000612   -1.9506512  0.029887201   -3.4000612      1.44941   379211 
 3398000   0.83389519   -3.3988084   -1.9501234  0.030172336   -3.3988084     1.448685   379099 
 3399000   0.83318559   -3.3980485   -1.9501646  0.033087651   -3.3980485    1.4478838   378986 
 3400000   0.83265116   -3.3989991     -1.95175  0.029077805   -3.3989991    1.4472491   378909 
 3401000    0.8318891   -3.3985853   -1.9523477   0.02971048   -3.3985853    1.4462376   378827 
 3402000   0.83138745   -3.3996623   -1.9538694  0.026072017   -3.3996623    1.4457929   378715 
 3403000   0.83125779   -3.4000486   -1.9541757  0.030360508   -3.4000486    1.4458728   378635 
 3404000   0.83037649   -3.4010147   -1.9564116  0.029868905   -3.4010147    1.4446032   378566 
 3405000   0.83027345   -3.4015499   -1.9567366   0.02815459   -3.4015499    1.4448132   378464 
 3406000   0.83012995   -3.4034922   -1.9585699  0.025842987   -3.4034922    1.4449224   378370 
 3407000   0.82978815   -3.4033218   -1.9586927  0.026438524   -3.4033218    1.4446291   378291 
 3408000   0.82858284   -3.4031085    -1.960101  0.027886388   -3.4031085    1.4430075   378166 
 3409000   0.82888935   -3.4037429   -1.9598045  0.027564746   -3.4037429    1.4439384   378062 
 3410000   0.82889866    -3.406941   -1.9625126  0.029232997    -3.406941    1.4444284   377938 
 3411000   0.82912386   -3.4071355    -1.962047  0.027668681   -3.4071355    1.4450885   377868 
 3412000   0.82878146   -3.4066086   -1.9617193  0.024871138   -3.4066086    1.4448893   377764 
 3413000   0.82846724   -3.4073823   -1.9627616  0.029680636   -3.4073823    1.4446207   377691 
 3414000    0.8290245   -3.4081357   -1.9623519  0.027836207   -3.4081357    1.4457838   377641 
 3415000   0.82874348    -3.408828   -1.9633008  0.030488243    -3.408828    1.4455272   377580 
 3416000    0.8282273   -3.4087724   -1.9638585  0.030200735   -3.4087724    1.4449139   377505 
 3417000   0.82820648   -3.4101482   -1.9649299  0.028877694   -3.4101482    1.4452183   377416 
 3418000   0.82665073   -3.4079412   -1.9651242  0.029933583   -3.4079412     1.442817   377334 
 3419000   0.82571535    -3.408327   -1.9667911  0.026249063    -3.408327    1.4415359   377242 
 3420000   0.82539453    -3.408053   -1.9666875  0.024285462    -3.408053    1.4413655   377140 
 3421000   0.82458139   -3.4075907   -1.9673205  0.026592798   -3.4075907    1.4402701   377055 
 3422000   0.82505635   -3.4100542   -1.9688665   0.02913951   -3.4100542    1.4411876   377032 
 3423000   0.82570565   -3.4131012   -1.9705574  0.028020299   -3.4131012    1.4425437   376974 
 3424000   0.82475321   -3.4122862   -1.9712764  0.025225511   -3.4122862    1.4410098   376940 
 3425000   0.82468081    -3.411264   -1.9699678  0.027611353    -3.411264    1.4412962   376832 
 3426000   0.82426663   -3.4116312   -1.9708983  0.028352852   -3.4116312    1.4407329   376790 
 3427000   0.82367064    -3.410674   -1.9706388  0.026389082    -3.410674    1.4400352   376700 
 3428000   0.82561005   -3.4139273   -1.9703329  0.026842055   -3.4139273    1.4435945   376656 
 3429000   0.82557066   -3.4151816   -1.9713532  0.026212973   -3.4151816    1.4438284   376577 
 3430000   0.82390774   -3.4135128    -1.972275  0.026030298   -3.4135128    1.4412378   376494 
 3431000   0.82227953   -3.4120525   -1.9733074  0.031691615   -3.4120525     1.438745   376401 
 3432000   0.82151675   -3.4123382   -1.9744617  0.028691511   -3.4123382    1.4378765   376279 
 3433000    0.8240204   -3.4173518   -1.9747559   0.02271996   -3.4173518    1.4425959   376191 
 3434000   0.82273717   -3.4152887   -1.9745448  0.027289127   -3.4152887    1.4407438   376088 
 3435000   0.82184682   -3.4142953   -1.9746818  0.030476538   -3.4142953    1.4396134   375976 
 3436000   0.82202663   -3.4158915   -1.9755608  0.028838323   -3.4158915    1.4403306   375871 
 3437000   0.82267495   -3.4173655   -1.9756303  0.031360745   -3.4173655    1.4417351   375801 
 3438000   0.82301345   -3.4183428   -1.9755614  0.028000549   -3.4183428    1.4427814   375683 
 3439000   0.82138351   -3.4178913   -1.9776567  0.024408322   -3.4178913    1.4402345   375602 
 3440000     0.819967   -3.4168483   -1.9787491  0.030506246   -3.4168483    1.4380992   375511 
 3441000   0.81953281   -3.4164022   -1.9786433  0.025536469   -3.4164022    1.4377589   375401 
 3442000   0.81982243   -3.4182352   -1.9797767  0.027229148   -3.4182352    1.4384585   375351 
 3443000   0.82019387   -3.4202006   -1.9808871  0.019975631   -3.4202006    1.4393135   375298 
 3444000   0.81964994   -3.4218603   -1.9830374   0.02578392   -3.4218603    1.4388229   375177 
 3445000   0.81834114   -3.4196849   -1.9827343  0.021090136   -3.4196849    1.4369505   375066 
 3446000   0.81761598   -3.4193484   -1.9832998    0.0249876   -3.4193484    1.4360486   374969 
 3447000    0.8186756   -3.4222854   -1.9839614  0.026907809   -3.4222854     1.438324   374861 
 3448000   0.81797871   -3.4229548   -1.9855714  0.025795464   -3.4229548    1.4373834   374787 
 3449000   0.81845659   -3.4235345   -1.9849697  0.029234456   -3.4235345    1.4385647   374698 
 3450000   0.81902804   -3.4244105    -1.984657  0.029024189   -3.4244105    1.4397536   374650 
 3451000   0.81758851   -3.4239055   -1.9863025   0.02751767   -3.4239055    1.4376029   374551 
 3452000   0.81769024   -3.4261344   -1.9880493  0.028273797   -3.4261344    1.4380851   374472 
 3453000   0.81789407   -3.4273597   -1.9886279  0.029524642   -3.4273597    1.4387318   374397 
 3454000   0.81779039   -3.4254567   -1.9866613  0.026552792   -3.4254567    1.4387953   374333 
 3455000   0.81737441   -3.4272512   -1.9887535  0.029258866   -3.4272512    1.4384977   374220 
 3456000   0.81743176   -3.4272404   -1.9884572  0.025473592   -3.4272404    1.4387832   374172 
 3457000   0.81704636   -3.4288089    -1.990385  0.026678484   -3.4288089    1.4384239   374089 
 3458000   0.81555022   -3.4274477    -1.991462  0.030344916   -3.4274477    1.4359857   374038 
 3459000   0.81796622   -3.4298977   -1.9894693  0.032059751   -3.4298977    1.4404284   373989 
 3460000   0.81815615   -3.4281708   -1.9873387  0.028964814   -3.4281708    1.4408322   373971 
 3461000   0.81757915   -3.4294593   -1.9892234  0.026223954   -3.4294593    1.4402358   373862 
 3462000   0.81667795    -3.428752   -1.9899343  0.026617354    -3.428752    1.4388176   373818 
 3463000   0.81652235   -3.4278164   -1.9891113  0.026547311   -3.4278164    1.4387051   373776 
 3464000   0.81605152   -3.4260221   -1.9878657  0.028933169   -3.4260221    1.4381564   373703 
 3465000   0.81607975   -3.4272535   -1.9887779  0.027549043   -3.4272535    1.4384756   373633 
 3466000   0.81457426   -3.4269012   -1.9905718  0.032398133   -3.4269012    1.4363294   373501 
 3467000   0.81426714   -3.4278238   -1.9916053  0.028044841   -3.4278238    1.4362185   373389 
 3468000   0.81413689   -3.4288653   -1.9926303  0.026044399   -3.4288653     1.436235   373325 
 3469000   0.81418633   -3.4298734   -1.9931972  0.020377715   -3.4298734    1.4366762   373233 
 3470000   0.81270195   -3.4287546   -1.9944248  0.028831213   -3.4287546    1.4343298   373162 
 3471000   0.81222127   -3.4289158   -1.9952153  0.021399475   -3.4289158    1.4337004   373105 
 3472000   0.81203485   -3.4305513   -1.9968071  0.020127893   -3.4305513    1.4337441   373008 
 3473000    0.8110888   -3.4310985    -1.998706  0.030044443   -3.4310985    1.4323925   372925 
 3474000   0.81147845   -3.4313812   -1.9980584  0.023681222   -3.4313812    1.4333228   372862 
 3475000   0.81130801   -3.4320292   -1.9987807  0.028297047   -3.4320292    1.4332485   372803 
 3476000   0.81121125   -3.4316337     -1.99826  0.027501276   -3.4316337    1.4333736   372726 
 3477000   0.81184829   -3.4333494   -1.9984152  0.029065792   -3.4333494    1.4349343   372613 
 3478000   0.81234522   -3.4345094   -1.9982921  0.032301612   -3.4345094    1.4362173   372508 
 3479000   0.81187755   -3.4347967   -1.9990401  0.024609275   -3.4347967    1.4357566   372413 
 3480000   0.81093423   -3.4352703   -2.0008506  0.023220987   -3.4352703    1.4344197   372327 
 3481000   0.81117707   -3.4366132   -2.0015674   0.02488086   -3.4366132    1.4350458   372276 
 3482000   0.81041607   -3.4351962   -2.0012232  0.025286154   -3.4351962     1.433973   372205 
 3483000   0.81016731   -3.4358094   -2.0019799  0.028525361   -3.4358094    1.4338295   372128 
 3484000   0.80999788   -3.4359327   -2.0021874  0.025451183   -3.4359327    1.4337454   372072 
 3485000   0.80750923   -3.4323621   -2.0026914  0.027505764   -3.4323621    1.4296707   371986 
 3486000    0.8103626        -3.44    -2.004799  0.026182685        -3.44     1.435201   371862 
 3487000   0.81069101   -3.4417364   -2.0055714  0.028802888   -3.4417364     1.436165   371763 
 3488000   0.80982476   -3.4417433   -2.0067964  0.030301802   -3.4417433    1.4349469   371681 
 3489000   0.80914404   -3.4400288   -2.0061261  0.028865553   -3.4400288    1.4339027   371639 
 3490000   0.80867865    -3.441069   -2.0074934  0.031673572    -3.441069    1.4335756   371510 
 3491000   0.80868994   -3.4415817    -2.007658  0.021704149   -3.4415817    1.4339237   371425 
 3492000   0.80807475   -3.4425069   -2.0094966  0.025929877   -3.4425069    1.4330104   371379 
 3493000   0.80804866   -3.4434126   -2.0100741  0.026250018   -3.4434126    1.4333385   371282 
 3494000   0.80892818   -3.4453224   -2.0100566  0.028471857   -3.4453224    1.4352658   371187 
 3495000     0.809416   -3.4472168   -2.0107449  0.025474226   -3.4472168    1.4364719   371099 
 3496000   0.80877574   -3.4473128   -2.0116792   0.02508641   -3.4473128    1.4356335   371022 
 3497000   0.80691354   -3.4455206   -2.0128953   0.02456955   -3.4455206    1.4326253   370945 
 3498000   0.80665755   -3.4451328   -2.0127303  0.023537804   -3.4451328    1.4324025   370885 
 3499000    0.8082375   -3.4476651   -2.0120778  0.026040846   -3.4476651    1.4355874   370787 
 3500000   0.80722168   -3.4466285   -2.0126095  0.028492613   -3.4466285     1.434019   370726 
 3501000   0.80770795   -3.4478798   -2.0129118  0.028600637   -3.4478798     1.434968   370704 
 3502000   0.80687034   -3.4476316   -2.0139467  0.027095344   -3.4476316    1.4336849   370651 
 3503000   0.80668707   -3.4492989   -2.0155218  0.028378801   -3.4492989     1.433777   370543 
 3504000   0.80859809   -3.4524692   -2.0150667  0.027214081   -3.4524692    1.4374025   370484 
 3505000   0.80754428   -3.4513004   -2.0156821  0.028011386   -3.4513004    1.4356183   370461 
 3506000   0.80651356   -3.4491682   -2.0151152  0.026006258   -3.4491682     1.434053   370392 
 3507000   0.80532336   -3.4480402    -2.015798  0.020093394   -3.4480402    1.4322422   370313 
 3508000   0.80670286   -3.4521856   -2.0172614  0.027542345   -3.4521856    1.4349242   370254 
 3509000   0.80676042   -3.4517866   -2.0165042  0.029601675   -3.4517866    1.4352825   370188 
 3510000     0.805785   -3.4514419   -2.0176236  0.026604304   -3.4514419    1.4338183   370118 
 3511000   0.80558526   -3.4524993   -2.0186839  0.028435918   -3.4524993    1.4338154   370027 
 3512000   0.80556494   -3.4537144   -2.0196485  0.022649326   -3.4537144     1.434066   369953 
 3513000   0.80440956   -3.4538833    -2.021514  0.027793864   -3.4538833    1.4323693   369860 
 3514000    0.8034529   -3.4540168    -2.023084  0.025423306   -3.4540168    1.4309327   369791 
 3515000   0.80246112   -3.4532461    -2.023724  0.027045526   -3.4532461     1.429522   369699 
 3516000   0.80207695   -3.4525508   -2.0233922  0.025746411   -3.4525508    1.4291585   369616 
 3517000   0.80209741   -3.4527264   -2.0233187  0.031025483   -3.4527264    1.4294077   369561 
 3518000   0.80226068   -3.4539453   -2.0239604  0.030702649   -3.4539453     1.429985   369487 
 3519000   0.80361811   -3.4572829    -2.024576  0.021264414   -3.4572829     1.432707   369409 
 3520000   0.80287111   -3.4552707   -2.0236436  0.027624206   -3.4552707    1.4316271   369344 
 3521000   0.80249056   -3.4532163    -2.022136  0.031347341   -3.4532163    1.4310803   369310 
 3522000   0.80337672   -3.4570717   -2.0240192  0.030204783   -3.4570717    1.4330525   369209 
 3523000   0.80388869   -3.4597239   -2.0253541  0.025437174   -3.4597239    1.4343698   369105 
 3524000   0.80303742   -3.4574567   -2.0244039  0.027999759   -3.4574567    1.4330527   369053 
 3525000   0.80180854   -3.4562718   -2.0251367  0.027085307   -3.4562718    1.4311351   368982 
 3526000   0.80235457   -3.4561996    -2.023923  0.024145584   -3.4561996    1.4322766   368939 
 3527000   0.80107989   -3.4557314   -2.0254472  0.023709111   -3.4557314    1.4302842   368866 
 3528000   0.80175683   -3.4572263   -2.0256209  0.024225778   -3.4572263    1.4316054   368837 
 3529000   0.80163081   -3.4593191   -2.0277097  0.023309317   -3.4593191    1.4316093   368778 
 3530000   0.79927123   -3.4562376   -2.0285828  0.026378856   -3.4562376    1.4276548   368711 
 3531000    0.7993797   -3.4548274   -2.0266457  0.024041402   -3.4548274    1.4281817   368625 
 3532000   0.80037124   -3.4586138   -2.0282066   0.02603264   -3.4586138    1.4304072   368508 
 3533000   0.79919558   -3.4575262   -2.0290961  0.028516374   -3.4575262    1.4284301   368476 
 3534000   0.80090105   -3.4615325   -2.0296111  0.028280403   -3.4615325    1.4319214   368362 
 3535000    0.8003311   -3.4600736   -2.0287982  0.023143326   -3.4600736    1.4312754   368266 
 3536000   0.79987823   -3.4580768   -2.0273083  0.029494276   -3.4580768    1.4307685   368188 
 3537000   0.79969921   -3.4553005   -2.0246929   0.02918072   -3.4553005    1.4306076   368147 
 3538000    0.7988066   -3.4545555   -2.0253623   0.02679596   -3.4545555    1.4291933   368100 
 3539000   0.80120109   -3.4599045   -2.0262402  0.028225967   -3.4599045    1.4336643   368052 
 3540000   0.79988279   -3.4586056   -2.0271058  0.024851677   -3.4586056    1.4314998   368002 
 3541000   0.80076755   -3.4598156   -2.0266623  0.030331708   -3.4598156    1.4331533   367984 
 3542000   0.80067064   -3.4602308   -2.0270172  0.031193805   -3.4602308    1.4332136   367924 
 3543000   0.79875657   -3.4573945   -2.0271795  0.027802349   -3.4573945     1.430215   367814 
 3544000   0.79966574   -3.4597269   -2.0277011  0.023914551   -3.4597269    1.4320259   367767 
 3545000   0.79970511   -3.4606408   -2.0282601  0.024127234   -3.4606408    1.4323807   367694 
 3546000   0.79886351   -3.4583978   -2.0273494  0.025242919   -3.4583978    1.4310484   367649 
 3547000   0.79867477     -3.45922   -2.0282412   0.02964393     -3.45922    1.4309789   367580 
 3548000   0.79801431   -3.4592267   -2.0292367  0.030322456   -3.4592267    1.4299901   367530 
 3549000   0.79842393   -3.4602056   -2.0292401    0.0245283   -3.4602056    1.4309655   367468 
 3550000   0.79842399   -3.4593785   -2.0281949  0.026768963   -3.4593785    1.4311837   367412 
 3551000   0.79931826   -3.4600642   -2.0271294  0.028783256   -3.4600642    1.4329349   367374 
 3552000   0.79888922   -3.4600852   -2.0278337   0.02987642   -3.4600852    1.4322515   367352 
 3553000   0.79954006   -3.4618152    -2.028233  0.025435533   -3.4618152    1.4335822   367310 
 3554000   0.79767063   -3.4588705   -2.0285389    0.0270246   -3.4588705    1.4303316   367284 
 3555000    0.7971162   -3.4592056   -2.0295685  0.021491603   -3.4592056    1.4296371   367207 
 3556000   0.79631179   -3.4591217   -2.0305733   0.02191777   -3.4591217    1.4285484   367116 
 3557000   0.79694948   -3.4590858   -2.0289493   0.02256125   -3.4590858    1.4301365   367002 
 3558000   0.79695981   -3.4610542   -2.0309109  0.022033792   -3.4610542    1.4301433   367005 
 3559000   0.79544195   -3.4591503   -2.0313145  0.024557207   -3.4591503    1.4278358   366898 
 3560000   0.79605745   -3.4608229   -2.0317537  0.023558313   -3.4608229    1.4290692   366865 
 3561000   0.79687219   -3.4621221   -2.0312587  0.024261891   -3.4621221    1.4308633   366780 
 3562000   0.79461237   -3.4613775   -2.0341438  0.029529435   -3.4613775    1.4272336   366670 
 3563000    0.7957069    -3.462475   -2.0330805   0.02900521    -3.462475    1.4293945   366620 
 3564000   0.79523427   -3.4645017   -2.0356093  0.024501092   -3.4645017    1.4288923   366531 
 3565000   0.79395844   -3.4623927   -2.0355632  0.026075047   -3.4623927    1.4268296   366472 
 3566000   0.79469928    -3.461734   -2.0333821   0.02590686    -3.461734    1.4283519   366423 
 3567000   0.79620115   -3.4643109   -2.0330839  0.031082857   -3.4643109    1.4312271   366378 
 3568000   0.79531507    -3.466557   -2.0365715  0.029314569    -3.466557    1.4299856   366288 
 3569000   0.79565906   -3.4671397   -2.0361098  0.032001163   -3.4671397    1.4310299   366179 
 3570000   0.79610107   -3.4700201   -2.0379566  0.027490823   -3.4700201    1.4320634   366118 
 3571000   0.79434667   -3.4684593   -2.0393019  0.030383967   -3.4684593    1.4291574   366054 
 3572000   0.79335601   -3.4674556   -2.0396515  0.029767437   -3.4674556    1.4278041   365944 
 3573000   0.79258723   -3.4695572   -2.0426961  0.024418079   -3.4695572    1.4268611   365831 
 3574000    0.7911637    -3.467691   -2.0432913  0.023120831    -3.467691    1.4243996   365805 
 3575000   0.79328621   -3.4710173   -2.0425073  0.026337897   -3.4710173    1.4285099   365731 
 3576000   0.79393203   -3.4718532   -2.0420435  0.026491142   -3.4718532    1.4298097   365696 
 3577000   0.79358399   -3.4712262    -2.041883  0.030017065   -3.4712262    1.4293432   365655 
 3578000   0.79280592   -3.4712656   -2.0430348  0.026576143   -3.4712656    1.4282308   365581 
 3579000   0.79247332    -3.471798   -2.0437718  0.031567178    -3.471798    1.4280262   365480 
 3580000   0.79287168   -3.4726916   -2.0437404  0.023574228   -3.4726916    1.4289512   365427 
 3581000   0.79250941   -3.4709433   -2.0425004  0.025420556   -3.4709433     1.428443   365390 
 3582000   0.79375936   -3.4734167   -2.0424467   0.02444215   -3.4734167      1.43097   365320 
 3583000   0.79121719   -3.4713316   -2.0446751  0.025759248   -3.4713316    1.4266565   365251 
 3584000   0.79048266   -3.4718156   -2.0462767  0.026858323   -3.4718156    1.4255389   365198 
 3585000   0.79271702   -3.4747631   -2.0449441  0.025560201   -3.4747631    1.4298189   365134 
 3586000   0.79112305   -3.4729779   -2.0456587  0.021024078   -3.4729779    1.4273192   365038 
 3587000    0.7904458   -3.4716753   -2.0452928  0.025651446   -3.4716753    1.4263825   364965 
 3588000    0.7911505   -3.4739894   -2.0460966  0.025830121   -3.4739894    1.4278928   364904 
 3589000   0.78929648   -3.4720723   -2.0471938  0.026729548   -3.4720723    1.4248785   364819 
 3590000   0.78913781   -3.4732606    -2.048403  0.025765248   -3.4732606    1.4248577   364751 
 3591000   0.78979317    -3.476421   -2.0500437   0.02403575    -3.476421    1.4263773   364665 
 3592000   0.78940093   -3.4759759   -2.0501036  0.026910434   -3.4759759    1.4258723   364613 
 3593000   0.78888163   -3.4748001   -2.0495805  0.031240241   -3.4748001    1.4252196   364540 
 3594000   0.78924054    -3.476797   -2.0504868  0.029457829    -3.476797    1.4263102   364427 
 3595000   0.78827671   -3.4761139   -2.0514009  0.029808889   -3.4761139     1.424713   364390 
 3596000   0.79043928   -3.4790801   -2.0501998  0.027893589   -3.4790801    1.4288804   364324 
 3597000   0.78973838   -3.4779602   -2.0499862  0.029461572   -3.4779602    1.4279739   364232 
 3598000   0.79000467   -3.4794416   -2.0509666  0.031615314   -3.4794416     1.428475   364227 
 3599000   0.78904357    -3.476275   -2.0494163    0.0243104    -3.476275    1.4268586   364196 
 3600000   0.78944096   -3.4785989   -2.0506452  0.031479265   -3.4785989    1.4279536   364100 
 3601000   0.79068607   -3.4797973   -2.0494068  0.029802643   -3.4797973    1.4303905   364053 
 3602000   0.78924748   -3.4791772   -2.0512716  0.032133907   -3.4791772    1.4279056   364023 
 3603000   0.78963346   -3.4802178   -2.0512724  0.028518905   -3.4802178    1.4289455   363936 
 3604000   0.78850969   -3.4779231   -2.0507563  0.029903925   -3.4779231    1.4271668   363871 
 3605000   0.78818045   -3.4808808   -2.0538982  0.027781488   -3.4808808    1.4269826   363766 
 3606000    0.7876181   -3.4804232   -2.0544234  0.024495467   -3.4804232    1.4259998   363757 
 3607000   0.78672992   -3.4787766   -2.0540011  0.024134377   -3.4787766    1.4247756   363659 
 3608000   0.78696176   -3.4784853   -2.0531762  0.024033176   -3.4784853    1.4253091   363630 
 3609000   0.78404828   -3.4755194   -2.0552645  0.026197729   -3.4755194     1.420255   363573 
 3610000   0.78561847   -3.4774575   -2.0541743  0.025654887   -3.4774575    1.4232833   363526 
 3611000   0.78587502   -3.4776207   -2.0537199  0.026668731   -3.4776207    1.4239008   363487 
 3612000   0.78580197   -3.4773434   -2.0534535  0.020785164   -3.4773434    1.4238899   363456 
 3613000   0.78548131   -3.4776541   -2.0540633   0.02556687   -3.4776541    1.4235908   363384 
 3614000   0.78642242   -3.4796134   -2.0540383  0.028713406   -3.4796134     1.425575   363313 
 3615000   0.78684993    -3.479444   -2.0530704  0.026360053    -3.479444    1.4263735   363307 
 3616000   0.78701411   -3.4795394   -2.0526483  0.026818606   -3.4795394    1.4268911   363251 
 3617000   0.78726989   -3.4787712   -2.0510744  0.025552087   -3.4787712    1.4276968   363164 
 3618000   0.78555458   -3.4782628   -2.0533981   0.02714144   -3.4782628    1.4248647   363093 
 3619000   0.78547186   -3.4782008   -2.0530622  0.023972787   -3.4782008    1.4251385   362985 
 3620000   0.78657297    -3.480767   -2.0532334  0.027763515    -3.480767    1.4275336   362884 
 3621000   0.78482284   -3.4814913   -2.0566314  0.027017994   -3.4814913    1.4248599   362756 
 3622000   0.78306965   -3.4770703   -2.0552641  0.028641962   -3.4770703    1.4218063   362723 
 3623000   0.78329521   -3.4782054   -2.0556052  0.026997361   -3.4782054    1.4226002   362625 
 3624000   0.78376881   -3.4788885   -2.0551454  0.028762053   -3.4788885     1.423743   362553 
 3625000   0.78426287   -3.4798504   -2.0551588  0.026398442   -3.4798504    1.4246916   362540 
 3626000   0.78480333    -3.481299   -2.0553699  0.023474911    -3.481299     1.425929   362475 
 3627000   0.78385785    -3.480561   -2.0559843  0.025956938    -3.480561    1.4245767   362382 
 3628000   0.78391422   -3.4811866   -2.0561536  0.025766488   -3.4811866     1.425033   362292 
 3629000   0.78301378   -3.4805167   -2.0570144  0.031821249   -3.4805167    1.4235023   362265 
 3630000   0.78362167   -3.4815073   -2.0567112  0.030075733   -3.4815073    1.4247962   362217 
 3631000   0.78361997   -3.4816781   -2.0567001  0.023295353   -3.4816781     1.424978   362170 
 3632000   0.78193892   -3.4795559    -2.057411  0.024412424   -3.4795559    1.4221449   362113 
 3633000   0.78282831   -3.4831056   -2.0589931  0.023172704   -3.4831056    1.4241125   362024 
 3634000   0.78200379   -3.4826204   -2.0597485  0.025367241   -3.4826204    1.4228719   361958 
 3635000   0.78140162   -3.4814098   -2.0594135  0.022513662   -3.4814098    1.4219963   361902 
 3636000   0.78172506   -3.4837277   -2.0608637  0.018896607   -3.4837277     1.422864   361831 
 3637000   0.78063907   -3.4807129   -2.0594327  0.030853127   -3.4807129    1.4212801   361731 
 3638000    0.7816461   -3.4820235   -2.0586463  0.025651597   -3.4820235    1.4233772   361664 
 3639000   0.78187396   -3.4811412   -2.0570655   0.02062604   -3.4811412    1.4240757   361592 
 3640000   0.78073734   -3.4800688   -2.0578273  0.021720208   -3.4800688    1.4222415   361532 
 3641000   0.78008523   -3.4805455    -2.059205   0.02616852   -3.4805455    1.4213405   361459 
 3642000   0.78086148   -3.4812341   -2.0581997  0.029658968   -3.4812341    1.4230344   361388 
 3643000   0.78005275   -3.4818577   -2.0600217  0.030180349   -3.4818577     1.421836   361318 
 3644000   0.77966704     -3.48288   -2.0615936  0.025074591     -3.48288    1.4212864   361279 
 3645000   0.77953106   -3.4832105   -2.0619478  0.026098801   -3.4832105    1.4212627   361222 
 3646000   0.77943581   -3.4839177   -2.0624233  0.024286388   -3.4839177    1.4214944   361119 
 3647000   0.77902416   -3.4821787    -2.061195  0.027152937   -3.4821787    1.4209837   361058 
 3648000   0.77848475   -3.4821996   -2.0619914  0.030227074   -3.4821996    1.4202082   361005 
 3649000   0.78099022   -3.4864001   -2.0612895   0.02179344   -3.4864001    1.4251106   360921 
 3650000   0.78135812   -3.4873474     -2.06136   0.02906457   -3.4873474    1.4259874   360869 
 3651000   0.78028215    -3.487841   -2.0636041  0.031467238    -3.487841    1.4242369   360815 
 3652000   0.77896151   -3.4860402   -2.0638158  0.027697257   -3.4860402    1.4222244   360714 
 3653000   0.77896924   -3.4859137   -2.0634741  0.027345887   -3.4859137    1.4224396   360663 
 3654000   0.77808129   -3.4850701   -2.0640746  0.026061259   -3.4850701    1.4209955   360618 
 3655000   0.77842463   -3.4863652   -2.0646519   0.02690471   -3.4863652    1.4217132   360595 
 3656000   0.77718053   -3.4865427   -2.0667592   0.02658528   -3.4865427    1.4197835   360508 
 3657000   0.77837637   -3.4879384   -2.0656625  0.025103426   -3.4879384    1.4222759   360430 
 3658000   0.77794117   -3.4887495   -2.0670006  0.028942263   -3.4887495    1.4217489   360362 
 3659000   0.77830907   -3.4887497   -2.0661153    0.0268013   -3.4887497    1.4226344   360308 
 3660000   0.77852269   -3.4900224   -2.0668237  0.025070999   -3.4900224    1.4231987   360264 
 3661000   0.77679021   -3.4871383   -2.0668149  0.026776702   -3.4871383    1.4203233   360190 
 3662000   0.77820948   -3.4911894   -2.0680893  0.025641163   -3.4911894    1.4231002   360144 
 3663000     0.778577   -3.4910172   -2.0671699   0.02908878   -3.4910172    1.4238473   360125 
 3664000   0.77698656   -3.4895188   -2.0683078  0.029098494   -3.4895188    1.4212111   360056 
 3665000   0.77670904   -3.4906723   -2.0698386  0.026897353   -3.4906723    1.4208337   360023 
 3666000   0.77851669   -3.4906004   -2.0662978   0.03095179   -3.4906004    1.4243026   359982 
 3667000   0.77806765   -3.4919333    -2.068211  0.030299369   -3.4919333    1.4237224   359921 
 3668000   0.77797558   -3.4919387   -2.0682147  0.026322198   -3.4919387     1.423724   359878 
 3669000   0.77709904   -3.4922648   -2.0700382  0.025319219   -3.4922648    1.4222266   359851 
 3670000    0.7777601   -3.4929359   -2.0692186  0.030400844   -3.4929359    1.4237173   359780 
 3671000   0.77826912   -3.4923444   -2.0675686   0.02652555   -3.4923444    1.4247758   359748 
 3672000   0.77698442   -3.4890073   -2.0664726  0.024924791   -3.4890073    1.4225347   359720 
 3673000   0.77542788   -3.4886046   -2.0686474  0.028307598   -3.4886046    1.4199573   359651 
 3674000   0.77513468   -3.4889553   -2.0690375  0.029060269   -3.4889553    1.4199178   359525 
 3675000   0.77439853   -3.4895168   -2.0705291  0.027267636   -3.4895168    1.4189877   359419 
 3676000   0.77528459   -3.4900167   -2.0692275  0.022177308   -3.4900167    1.4207891   359374 
 3677000   0.77459748   -3.4872244   -2.0677063   0.02544883   -3.4872244    1.4195181   359377 
 3678000    0.7746152   -3.4867686    -2.066815  0.024669354   -3.4867686    1.4199536   359275 
 3679000   0.77385922   -3.4855596   -2.0669957  0.024377432   -3.4855596    1.4185638   359276 
 3680000   0.77398107   -3.4877931   -2.0687768  0.024681136   -3.4877931    1.4190163   359218 
 3681000   0.77451222   -3.4888743   -2.0685126  0.023899737   -3.4888743    1.4203618   359124 
 3682000    0.7733294   -3.4876016   -2.0691839  0.022331943   -3.4876016    1.4184178   359067 
 3683000    0.7717488   -3.4857529   -2.0700174  0.021364717   -3.4857529    1.4157355   359012 
 3684000   0.77214901   -3.4860829   -2.0693765  0.023458829   -3.4860829    1.4167065   358952 
 3685000   0.77147446   -3.4849673   -2.0693171  0.025483918   -3.4849673    1.4156502   358906 
 3686000   0.77326172   -3.4876063   -2.0684392  0.019709966   -3.4876063    1.4191671   358846 
 3687000   0.77394444   -3.4901837    -2.069526  0.022957455   -3.4901837    1.4206576   358786 
 3688000   0.77317327   -3.4859855   -2.0667989  0.026058866   -3.4859855    1.4191867   358800 
 3689000   0.77523747   -3.4900124    -2.066779  0.027723365   -3.4900124    1.4232334   358735 
 3690000   0.77398195     -3.48788   -2.0667732  0.028665605     -3.48788    1.4211067   358690 
 3691000   0.77403533   -3.4885115   -2.0672037  0.028846912   -3.4885115    1.4213078   358664 
 3692000   0.77406114   -3.4908982    -2.069107  0.026357562   -3.4908982    1.4217912   358554 
 3693000   0.77381549   -3.4901551   -2.0686764  0.030303258   -3.4901551    1.4214788   358519 
 3694000   0.77166964   -3.4876096   -2.0698354   0.02851313   -3.4876096    1.4177742   358459 
 3695000    0.7741603   -3.4933136   -2.0708562  0.026609845   -3.4933136    1.4224573   358432 
 3696000   0.77293112   -3.4915616   -2.0709466  0.021930197   -3.4915616     1.420615   358327 
 3697000    0.7717792   -3.4922172   -2.0733987  0.026902933   -3.4922172    1.4188185   358246 
 3698000   0.77329656   -3.4950047   -2.0731427  0.027667182   -3.4950047     1.421862   358182 
 3699000   0.77380349   -3.4958751   -2.0728307  0.025869868   -3.4958751    1.4230444   358119 
 3700000   0.77223098    -3.494486   -2.0740281  0.027499718    -3.494486    1.4204579   358042 
 3701000   0.77008119   -3.4908437   -2.0740591  0.026524825   -3.4908437    1.4167845   357971 
 3702000   0.77018118   -3.4924294   -2.0751442  0.024372911   -3.4924294    1.4172852   357891 
 3703000   0.77079961   -3.4943624   -2.0757053  0.018685987   -3.4943624    1.4186571   357832 
 3704000   0.76874874   -3.4918234    -2.076668  0.028854652   -3.4918234    1.4151554   357763 
 3705000   0.76934494   -3.4954792   -2.0788343  0.025485693   -3.4954792    1.4166449   357664 
 3706000   0.77086995   -3.4975946   -2.0779193  0.027451614   -3.4975946    1.4196753   357608 
 3707000   0.76926076   -3.4949936   -2.0779927  0.025458549   -3.4949936     1.417001   357535 
 3708000   0.77058557   -3.4973466   -2.0776988  0.027112443   -3.4973466    1.4196478   357483 
 3709000   0.77067014   -3.4992238   -2.0790905  0.030750775   -3.4992238    1.4201333   357400 
 3710000   0.77135829   -3.5028108   -2.0810355  0.030254655   -3.5028108    1.4217753   357306 
 3711000   0.77099053   -3.5026575   -2.0813054  0.028814888   -3.5026575    1.4213521   357242 
 3712000   0.76868695   -3.5006001   -2.0830345  0.026526162   -3.5006001    1.4175656   357126 
 3713000    0.7703059    -3.501431   -2.0807724  0.030557945    -3.501431    1.4206586   357099 
 3714000   0.76860644   -3.5009401   -2.0831894  0.031446972   -3.5009401    1.4177506   357042 
 3715000   0.76901559   -3.5028624   -2.0841266  0.026168695   -3.5028624    1.4187358   356984 
 3716000   0.76801761   -3.5009924   -2.0839747  0.026747247   -3.5009924    1.4170177   356953 
 3717000   0.76817681    -3.500127    -2.082617  0.027153177    -3.500127      1.41751   356903 
 3718000   0.76782105   -3.5018322   -2.0847087  0.024010101   -3.5018322    1.4171235   356835 
 3719000   0.76677894   -3.5006701   -2.0852598  0.026311811   -3.5006701    1.4154104   356782 
 3720000   0.76869812   -3.5038007   -2.0846966  0.029058213   -3.5038007    1.4191042   356744 
 3721000   0.76863945   -3.5028695   -2.0836111   0.02422536   -3.5028695    1.4192584   356678 
 3722000   0.76755228   -3.5022322   -2.0845798  0.026545363   -3.5022322    1.4176524   356577 
 3723000   0.76782285   -3.5030505   -2.0845363  0.028611979   -3.5030505    1.4185142   356486 
 3724000   0.76880568   -3.5040067   -2.0835373  0.030869898   -3.5040067    1.4204694   356451 
 3725000   0.76792577   -3.5039763   -2.0849177  0.026270561   -3.5039763    1.4190586   356397 
 3726000   0.76697917   -3.5052761   -2.0875331  0.026879147   -3.5052761     1.417743   356288 
 3727000   0.76696468   -3.5050794   -2.0871602  0.028286104   -3.5050794    1.4179192   356237 
 3728000   0.76666973   -3.5054693   -2.0879721  0.025545201   -3.5054693    1.4174972   356206 
 3729000   0.76645918   -3.5047734   -2.0875024  0.027202748   -3.5047734    1.4172711   356165 
 3730000    0.7665904   -3.5046364   -2.0869436  0.028970871   -3.5046364    1.4176928   356120 
 3731000   0.76666288   -3.5044551   -2.0865764  0.024906027   -3.5044551    1.4178786   356107 
 3732000   0.76740923   -3.5046203   -2.0851461  0.026743848   -3.5046203    1.4194742   356053 
 3733000   0.76557282   -3.5023649   -2.0859136  0.030173041   -3.5023649    1.4164513   355959 
 3734000   0.76607646   -3.5039706   -2.0862688  0.022876206   -3.5039706    1.4177018   355879 
 3735000   0.76639824   -3.5041135   -2.0858202  0.019316476   -3.5041135    1.4182933   355880 
 3736000   0.76533378   -3.5024174   -2.0858273  0.030650738   -3.5024174    1.4165901   355813 
 3737000   0.76466861   -3.5035827   -2.0876985  0.026796472   -3.5035827    1.4158842   355681 
 3738000   0.76502943     -3.50335    -2.086483  0.023800976     -3.50335     1.416867   355602 
 3739000   0.76577696   -3.5055679   -2.0868417    0.0240104   -3.5055679    1.4187262   355483 
 3740000   0.76587449   -3.5063423   -2.0870322  0.029590602   -3.5063423    1.4193101   355382 
 3741000   0.76685849   -3.5086656   -2.0873119  0.028109392   -3.5086656    1.4213537   355327 
 3742000   0.76599979    -3.508124    -2.088258  0.030879407    -3.508124     1.419866   355301 
 3743000   0.76477651   -3.5077632   -2.0901528  0.024589161   -3.5077632    1.4176105   355298 
 3744000   0.76426318   -3.5062662   -2.0895594  0.023447177   -3.5062662    1.4167068   355286 
 3745000   0.76328254   -3.5041289   -2.0889451  0.026273887   -3.5041289    1.4151837   355212 
 3746000   0.76411503    -3.505251   -2.0883563  0.023137903    -3.505251    1.4168948   355170 
 3747000   0.76348028   -3.5037327   -2.0877877  0.024263242   -3.5037327     1.415945   355113 
 3748000    0.7646126   -3.5067136    -2.088445  0.025445323   -3.5067136    1.4182686   355057 
 3749000   0.76481843   -3.5059618   -2.0869477  0.025031829   -3.5059618    1.4190141   354966 
 3750000   0.76465584   -3.5062014   -2.0872531  0.025495763   -3.5062014    1.4189483   354907 
 3751000   0.76410237   -3.5046018   -2.0864807   0.02804235   -3.5046018    1.4181211   354857 
 3752000   0.76501799   -3.5068492   -2.0869248  0.027185614   -3.5068492    1.4199244   354831 
 3753000   0.76474797   -3.5068218   -2.0871065  0.023191669   -3.5068218    1.4197153   354758 
 3754000   0.76401436   -3.5046099   -2.0859486  0.023572701   -3.5046099    1.4186613   354681 
 3755000    0.7646979   -3.5066442   -2.0865735  0.025536153   -3.5066442    1.4200707   354646 
 3756000   0.76416351   -3.5059418   -2.0866234  0.026758131   -3.5059418    1.4193184   354586 
 3757000   0.76261108   -3.5037072   -2.0870364  0.026110987   -3.5037072    1.4166707   354527 
 3758000   0.76270116   -3.5038041   -2.0868021  0.027590251   -3.5038041     1.417002   354486 
 3759000   0.76178223   -3.5027007   -2.0873381  0.024079576   -3.5027007    1.4153626   354469 
 3760000   0.76303529   -3.5056209   -2.0876061  0.026255033   -3.5056209    1.4180147   354388 
 3761000    0.7632694   -3.5063989    -2.087781  0.028353043   -3.5063989    1.4186179   354346 
 3762000   0.76330715   -3.5069588   -2.0879944  0.024601336   -3.5069588    1.4189644   354277 
 3763000   0.76339723    -3.506311   -2.0869427  0.026218063    -3.506311    1.4193682   354218 
 3764000   0.76270595   -3.5054492    -2.087194  0.028558649   -3.5054492    1.4182551   354175 
 3765000   0.76398349   -3.5082462   -2.0873788  0.025377545   -3.5082462    1.4208674   354116 
 3766000    0.7620191   -3.5062346   -2.0888325   0.03196454   -3.5062346    1.4174021   354069 
 3767000   0.76279036   -3.5066701   -2.0876891  0.029866507   -3.5066701     1.418981   354033 
 3768000   0.76203779   -3.5082732   -2.0903918  0.027792368   -3.5082732    1.4178814   353958 
 3769000   0.76187906   -3.5082908   -2.0904243  0.023603645   -3.5082908    1.4178665   353888 
[...]
 7812000  0.057083882  -0.21983235    1.2087614  0.021657374  -0.21983235    1.4285938    26316 
 7813000  0.057342307  -0.21853387     1.215002  0.021547118  -0.21853387    1.4335359    26344 
 7814000  0.057246988  -0.21895444    1.2163939  0.021873873  -0.21895444    1.4353483    26267 
 7815000  0.057178275  -0.21940452    1.2127488  0.021488074  -0.21940452    1.4321534    26294 
 7816000  0.057327608  -0.21924231    1.2175804  0.021694392  -0.21924231    1.4368227    26277 
 7817000  0.057048681  -0.21694154    1.2142519  0.021708545  -0.21694154    1.4311935    26252 
 7818000  0.057155249  -0.21650865    1.2177954   0.02140915  -0.21650865    1.4343041    26244 
 7819000    0.0572512  -0.21733049    1.2191625   0.02175843  -0.21733049     1.436493    26248 
 7820000  0.057361096  -0.21781035    1.2217691  0.021777243  -0.21781035    1.4395795    26242 
 7821000  0.057170176  -0.21686522    1.2200583  0.021402077  -0.21686522    1.4369235    26203 
 7822000  0.057339341  -0.21931325    1.2257224  0.021752155  -0.21931325    1.4450356    26133 
 7823000  0.057207277  -0.21987562    1.2223837   0.02201205  -0.21987562    1.4422593    26123 
 7824000  0.056972717  -0.21458653    1.2235209  0.021763137  -0.21458653    1.4381074    26091 
 7825000  0.057122002  -0.21352178      1.22946  0.021731845  -0.21352178    1.4429818    26071 
 7826000   0.05745261  -0.21646192    1.2345376  0.021436701  -0.21646192    1.4509995    26077 
 7827000  0.057189845  -0.21649487    1.2293654  0.021819239  -0.21649487    1.4458603    26050 
 7828000   0.05712711  -0.21465989    1.2304464  0.021995609  -0.21465989    1.4451063    26035 
 7829000  0.056997807  -0.21380758    1.2286373   0.02154047  -0.21380758    1.4424449    26024 
 7830000  0.057164378  -0.21490075    1.2325382  0.021677816  -0.21490075     1.447439    26010 
 7831000  0.057412007  -0.21577781    1.2378754  0.021922226  -0.21577781    1.4536532    26011 
 7832000   0.05705765  -0.21286882    1.2317566  0.021706024  -0.21286882    1.4446255    26012 
 7833000  0.057233956  -0.21508511    1.2340599  0.021445397  -0.21508511     1.449145    26011 
 7834000  0.057144897  -0.21305965    1.2370081  0.021954281  -0.21305965    1.4500677    25954 
 7835000  0.056832405  -0.20965957    1.2313681   0.02171685  -0.20965957    1.4410277    25974 
 7836000  0.057055614  -0.21463598    1.2342268  0.021699884  -0.21463598    1.4488628    25935 
 7837000  0.057136495  -0.21456214    1.2365224  0.022076932  -0.21456214    1.4510845    25932 
 7838000  0.057065271  -0.21570045    1.2350298  0.021597934  -0.21570045    1.4507302    25906 
 7839000   0.05703756  -0.21425661    1.2347064  0.021861983  -0.21425661     1.448963    25925 
 7840000   0.05691841  -0.21164443    1.2345707  0.021597297  -0.21164443    1.4462151    25920 
 7841000  0.056745198  -0.20846741    1.2364684  0.021563648  -0.20846741    1.4449358    25864 
 7842000  0.056930246  -0.21254972     1.237771  0.021923586  -0.21254972    1.4503207    25852 
 7843000   0.05671635  -0.21066575    1.2349887  0.021779941  -0.21066575    1.4456545    25838 
 7844000  0.056782415  -0.21441475    1.2319161  0.021838234  -0.21441475    1.4463309    25856 
 7845000  0.056791179  -0.21466275     1.232787  0.021566543  -0.21466275    1.4474498    25840 
 7846000  0.056649852   -0.2117515    1.2338865  0.021547188   -0.2117515     1.445638    25808 
 7847000  0.056788172  -0.20663314    1.2435461  0.021630137  -0.20663314    1.4501792    25790 
 7848000  0.056816894  -0.20900498    1.2435974  0.021823455  -0.20900498    1.4526024    25760 
 7849000  0.056908611  -0.21106115    1.2439426  0.022026748  -0.21106115    1.4550038    25759 
 7850000  0.056925079  -0.21289501    1.2441136  0.021483957  -0.21289501    1.4570086    25731 
 7851000  0.056887106  -0.21040564    1.2444436  0.021644673  -0.21040564    1.4548493    25752 
 7852000  0.056543221  -0.20902097    1.2398468  0.021503553  -0.20902097    1.4488678    25702 
 7853000  0.056894427  -0.20793299    1.2480081  0.021746761  -0.20793299    1.4559411    25736 
 7854000  0.056849852  -0.20845917    1.2483224  0.021936566  -0.20845917    1.4567816    25701 
 7855000  0.056935288  -0.21184722    1.2481462  0.021835039  -0.21184722    1.4599934    25683 
 7856000  0.056828999  -0.21188891    1.2470263  0.021780262  -0.21188891    1.4589152    25654 
 7857000   0.05701147  -0.21198074    1.2540189  0.021608904  -0.21198074    1.4659997    25612 
 7858000  0.056820072  -0.21160315     1.250274  0.021738604  -0.21160315    1.4618772    25598 
 7859000  0.056917106  -0.21304258    1.2501307  0.021568666  -0.21304258    1.4631733    25619 
 7860000  0.056961128  -0.21115528    1.2529211  0.021800164  -0.21115528    1.4640764    25623 
 7861000  0.056652359  -0.21356368    1.2443403   0.02173733  -0.21356368    1.4579039    25592 
 7862000  0.056714008  -0.21262007    1.2470985  0.021826542  -0.21262007    1.4597186    25588 
 7863000  0.056787353  -0.20909978    1.2507379  0.021531142  -0.20909978    1.4598377    25619 
 7864000  0.057067744  -0.21027175    1.2572896  0.021819731  -0.21027175    1.4675613    25610 
 7865000  0.057305367   -0.2119129    1.2606667  0.021814364   -0.2119129    1.4725796    25629 
 7866000  0.056708422  -0.20567268    1.2577339  0.021982739  -0.20567268    1.4634066    25521 
 7867000   0.05688785  -0.20678514    1.2591838  0.021532972  -0.20678514     1.465969    25557 
 7868000  0.056975384  -0.20841377    1.2582041  0.021902106  -0.20841377    1.4666179    25585 
 7869000  0.056663219  -0.20760438    1.2535479  0.021521302  -0.20760438    1.4611523    25540 
 7870000   0.05687292  -0.21223134    1.2559956  0.021651946  -0.21223134    1.4682269    25511 
 7871000  0.056663011  -0.20913736    1.2555077  0.021656453  -0.20913736    1.4646451    25479 
 7872000  0.056969955  -0.20899319    1.2618541  0.021904593  -0.20899319    1.4708473    25509 
 7873000  0.057203936  -0.21050549    1.2658618  0.022283696  -0.21050549    1.4763673    25518 
 7874000   0.05716926  -0.20977668    1.2645979  0.022161363  -0.20977668    1.4743745    25537 
 7875000  0.056946642  -0.20903437    1.2616146  0.021838658  -0.20903437    1.4706489    25502 
 7876000  0.056881482  -0.20787909     1.259591  0.021830581  -0.20787909      1.46747    25528 
 7877000  0.056916412  -0.20702638    1.2639955  0.021945518  -0.20702638    1.4710219    25482 
 7878000  0.056844385  -0.20752933    1.2619193   0.02158211  -0.20752933    1.4694487    25477 
 7879000  0.056904004  -0.20611475    1.2648751  0.021565542  -0.20611475    1.4709898    25477 
 7880000  0.056555136  -0.20579308    1.2563506  0.021678752  -0.20579308    1.4621436    25474 
 7881000  0.056680851  -0.20529779    1.2627469  0.021570192  -0.20529779    1.4680447    25428 
 7882000  0.056659792  -0.20534983    1.2628424  0.021741489  -0.20534983    1.4681922    25416 
 7883000  0.056823885  -0.20775672    1.2632406  0.022224495  -0.20775672    1.4709973    25441 
 7884000  0.057094066  -0.20530227    1.2708325  0.022306254  -0.20530227    1.4761348    25473 
 7885000   0.05670448  -0.20330297    1.2644302  0.021953503  -0.20330297    1.4677332    25444 
 7886000  0.056812647  -0.20313356    1.2696569  0.021996843  -0.20313356    1.4727905    25405 
 7887000  0.056851094  -0.20384811    1.2718559  0.021845418  -0.20384811     1.475704    25372 
 7888000  0.056963742  -0.20779712    1.2689684  0.022023124  -0.20779712    1.4767655    25404 
 7889000  0.057087734  -0.21007468    1.2707796  0.022132907  -0.21007468    1.4808543    25389 
 7890000  0.056880033  -0.20811973    1.2677537  0.022035877  -0.20811973    1.4758735    25382 
 7891000  0.057097685   -0.2096546    1.2708164  0.021886139   -0.2096546     1.480471    25400 
 7892000  0.057040258   -0.2046119    1.2732646  0.021951394   -0.2046119    1.4778765    25419 
 7893000  0.056896582  -0.20452769    1.2716007  0.021979617  -0.20452769    1.4761284    25385 
 7894000   0.05719725  -0.20594987    1.2800279  0.022580187  -0.20594987    1.4859778    25350 
 7895000  0.056810348  -0.20072156    1.2759036  0.021916674  -0.20072156    1.4766251    25338 
 7896000  0.056799298  -0.20686325    1.2697078  0.021905663  -0.20686325     1.476571    25334 
 7897000  0.056674487  -0.20411261     1.268923  0.021889302  -0.20411261    1.4730356    25339 
 7898000  0.056626936  -0.20649864    1.2653592  0.021479004  -0.20649864    1.4718578    25338 
 7899000  0.056500769  -0.20430998    1.2665324  0.021596291  -0.20430998    1.4708424    25299 
 7900000  0.056901531  -0.20995259    1.2682258  0.021731241  -0.20995259    1.4781784    25352 
 7901000  0.056370178  -0.20602848    1.2606027  0.021520909  -0.20602848    1.4666312    25313 
 7902000  0.056363262  -0.21051798    1.2569768  0.021657462  -0.21051798    1.4674948    25295 
 7903000   0.05608948  -0.20697816    1.2555276  0.021544097  -0.20697816    1.4625058    25258 
 7904000  0.056125235  -0.20655047    1.2581634  0.021656041  -0.20655047    1.4647138    25236 
 7905000   0.05617301  -0.20565721    1.2597228  0.021627419  -0.20565721      1.46538    25246 
 7906000   0.05598312  -0.20606557    1.2545922  0.021511332  -0.20606557    1.4606578    25242 
 7907000   0.05600855  -0.20710266    1.2541607  0.021419504  -0.20710266    1.4612634    25243 
 7908000  0.056222133  -0.21134169    1.2572976  0.021657199  -0.21134169    1.4686393    25212 
 7909000  0.055679498  -0.20590478    1.2504082  0.021117149  -0.20590478     1.456313    25180 
 7910000    0.0559432  -0.20782111     1.256785  0.021411334  -0.20782111    1.4646061    25156 
 7911000  0.055991182  -0.21007419    1.2567794  0.021386885  -0.21007419    1.4668536    25139 
 7912000  0.055983203  -0.20508277    1.2615618   0.02130696  -0.20508277    1.4666446    25139 
 7913000  0.056146548   -0.2054509    1.2638948  0.021602475   -0.2054509    1.4693457    25166 
 7914000  0.055921439  -0.20508073    1.2590139  0.021407104  -0.20508073    1.4640946    25155 
 7915000  0.056081425  -0.20624717    1.2622696  0.021347299  -0.20624717    1.4685168    25151 
 7916000  0.055952573  -0.20253096    1.2622041  0.021440192  -0.20253096    1.4647351    25158 
 7917000   0.05592751  -0.20336427    1.2613551  0.021311972  -0.20336427    1.4647194    25147 
 7918000  0.056151756  -0.20751264    1.2632551  0.021580407  -0.20751264    1.4707678    25144 
 7919000  0.056306698  -0.20904346    1.2618049  0.021594847  -0.20904346    1.4708483    25212 
 7920000  0.056030245  -0.20811696    1.2577192   0.02147938  -0.20811696    1.4658362    25174 
 7921000  0.056065052  -0.20731727    1.2568123  0.021391577  -0.20731727    1.4641295    25219 
 7922000    0.0564781  -0.20997679    1.2630703  0.021760134  -0.20997679    1.4730471    25251 
 7923000  0.056221017  -0.20551253    1.2633307  0.021552459  -0.20551253    1.4688432    25208 
 7924000  0.056079972  -0.20510957    1.2621441  0.021364877  -0.20510957    1.4672537    25172 
 7925000  0.056369733   -0.2069084    1.2677507  0.021488468   -0.2069084    1.4746591    25175 
 7926000  0.056171774   -0.2057655    1.2637732  0.021465064   -0.2057655    1.4695387    25174 
 7927000  0.056372264  -0.20785442    1.2673396  0.021469909  -0.20785442    1.4751941    25167 
 7928000  0.056237953  -0.20732384    1.2657017  0.021641712  -0.20732384    1.4730255    25144 
 7929000  0.056275863  -0.20493608    1.2694342  0.021453645  -0.20493608    1.4743703    25138 
 7930000  0.056277416  -0.20577242    1.2668226  0.021811648  -0.20577242     1.472595    25169 
 7931000  0.056185165  -0.20548483    1.2663922  0.021378196  -0.20548483     1.471877    25140 
 7932000  0.056194131   -0.2086316    1.2644178  0.021570277   -0.2086316    1.4730494    25124 
 7933000  0.056207828   -0.2053415    1.2684776  0.021705033   -0.2053415    1.4738191    25117 
 7934000  0.056063482  -0.20723353    1.2617479  0.021794332  -0.20723353    1.4689815    25135 
 7935000  0.056171343  -0.20565367     1.266857  0.021701455  -0.20565367    1.4725106    25123 
 7936000  0.056230539  -0.20803835    1.2659068  0.021435571  -0.20803835    1.4739451    25125 
 7937000  0.055962976  -0.20527449    1.2599076  0.021887369  -0.20527449    1.4651821    25155 
 7938000  0.056228006  -0.20489969    1.2668702  0.021661491  -0.20489969    1.4717699    25161 
 7939000  0.056134653   -0.2031037    1.2678011  0.021564903   -0.2031037    1.4709048    25134 
 7940000  0.056170744  -0.20534559     1.267677  0.021555984  -0.20534559    1.4730226    25114 
 7941000   0.05624224  -0.20706521    1.2718957  0.021538035  -0.20706521     1.478961    25045 
 7942000  0.055826043   -0.1994594    1.2690262  0.021401171   -0.1994594    1.4684856    25037 
 7943000  0.055824584  -0.19973416    1.2684785  0.021624452  -0.19973416    1.4682126    25041 
 7944000  0.055994607  -0.20364074    1.2688084   0.02130744  -0.20364074    1.4724491    25045 
 7945000  0.055761982  -0.20339141    1.2617121  0.021209347  -0.20339141    1.4651035    25066 
 7946000  0.056044109  -0.20481013    1.2687054  0.021405875  -0.20481013    1.4735155    25049 
 7947000  0.055849053  -0.20131015    1.2688964  0.021523344  -0.20131015    1.4702066    25018 
 7948000  0.055815949  -0.20038717    1.2673639   0.02160694  -0.20038717    1.4677511    25045 
 7949000  0.055575583   -0.2005662    1.2632605   0.02157389   -0.2005662    1.4638267    25004 
 7950000  0.055629124  -0.20270204    1.2627693  0.021217383  -0.20270204    1.4654714    25000 
 7951000  0.055645342  -0.20315268     1.263626   0.02146084  -0.20315268    1.4667787    24985 
 7952000  0.055854585  -0.20346949     1.267353  0.021421509  -0.20346949    1.4708225    25010 
 7953000  0.055871299  -0.20655218    1.2647105  0.021414555  -0.20655218    1.4712626    25010 
 7954000  0.055616668   -0.2019299    1.2631548  0.021496448   -0.2019299    1.4650847    25001 
 7955000  0.055793269  -0.20585174    1.2636499  0.021428399  -0.20585174    1.4695016    25005 
 7956000  0.055886375  -0.20199735    1.2665502  0.021456198  -0.20199735    1.4685476    25063 
 7957000  0.055845718  -0.20396438    1.2646868  0.021658112  -0.20396438    1.4686512    25043 
 7958000  0.055606709  -0.20262032    1.2620848  0.021230534  -0.20262032    1.4647051    25003 
 7959000  0.055643005  -0.20412642    1.2613003  0.021542046  -0.20412642    1.4654267    25007 
 7960000  0.055466992  -0.20480217    1.2591503  0.021159413  -0.20480217    1.4639525    24953 
 7961000  0.055739644  -0.20580297    1.2677669  0.021347434  -0.20580297    1.4735699    24912 
 7962000  0.055718507  -0.20186099     1.270559  0.021357826  -0.20186099      1.47242    24922 
 7963000  0.055360067  -0.20138703     1.263736  0.021177374  -0.20138703     1.465123    24885 
 7964000  0.055465632  -0.20634507    1.2628116  0.021433973  -0.20634507    1.4691566    24864 
 7965000  0.055282878  -0.20298368    1.2635736   0.02112559  -0.20298368    1.4665573    24826 
 7966000  0.055299412  -0.20262847     1.264013  0.021096641  -0.20262847    1.4666414    24832 
 7967000  0.055525945  -0.20587806    1.2649944  0.021411191  -0.20587806    1.4708725    24862 
 7968000  0.055092749  -0.19812898     1.262208  0.020865362  -0.19812898     1.460337    24846 
 7969000  0.055493187  -0.20371787    1.2669376  0.021065511  -0.20371787    1.4706554    24851 
 7970000  0.055455919  -0.20121881    1.2699882  0.021430203  -0.20121881     1.471207    24825 
 7971000  0.055152697  -0.20163061    1.2643667  0.021287667  -0.20163061    1.4659973    24777 
 7972000  0.055131893  -0.19884516     1.266067  0.021275582  -0.19884516    1.4649122    24786 
 7973000  0.055016916  -0.20094904    1.2622659   0.02125773  -0.20094904    1.4632149    24763 
 7974000  0.055104471  -0.20209638    1.2634471  0.021251243  -0.20209638    1.4655435    24763 
 7975000   0.05515166  -0.20173684    1.2664253  0.021360921  -0.20173684    1.4681622    24740 
 7976000  0.055291887  -0.20226675    1.2699854  0.021302544  -0.20226675    1.4722521    24734 
 7977000  0.055244793  -0.20364066     1.266169   0.02101409  -0.20364066    1.4698097    24754 
 7978000  0.055361157  -0.20191822    1.2702142  0.021079528  -0.20191822    1.4721324    24767 
 7979000  0.055470079  -0.20467166    1.2689292  0.021204218  -0.20467166    1.4736009    24791 
 7980000  0.055486486  -0.20106133    1.2717872  0.021180126  -0.20106133    1.4728485    24811 
 7981000  0.055517188  -0.20232022    1.2707496  0.021334069  -0.20232022    1.4730698    24821 
 7982000  0.055522836  -0.20272301    1.2699033  0.021423077  -0.20272301    1.4726263    24831 
 7983000  0.055566859  -0.20501492    1.2677707  0.021417962  -0.20501492    1.4727856    24848 
 7984000  0.055429742  -0.20121021    1.2713191  0.021291941  -0.20121021    1.4725293    24791 
 7985000   0.05546686  -0.19821169    1.2753037   0.02154588  -0.19821169    1.4735154    24791 
 7986000  0.055429681   -0.2003211     1.273455  0.021444815   -0.2003211    1.4737761    24770 
 7987000  0.055369938  -0.20521068    1.2653147  0.021184012  -0.20521068    1.4705253    24798 
 7988000  0.055405603   -0.2024712    1.2711406  0.021375617   -0.2024712    1.4736118    24762 
 7989000  0.055216645  -0.20347814    1.2645744  0.021211669  -0.20347814    1.4680526    24771 
 7990000  0.055512841  -0.20675496    1.2696494  0.021383013  -0.20675496    1.4764044    24763 
 7991000  0.055252313  -0.20211937    1.2696741  0.021311068  -0.20211937    1.4717934    24724 
 7992000  0.055434513  -0.20126958    1.2746609  0.021282574  -0.20126958    1.4759305    24736 
 7993000  0.055521912  -0.20324487    1.2757301  0.021211163  -0.20324487    1.4789749    24724 
 7994000  0.055205695  -0.19676893    1.2746159  0.021289751  -0.19676893    1.4713848    24710 
 7995000   0.05550951   -0.1997412    1.2826808  0.021050092   -0.1997412     1.482422    24661 
 7996000  0.055489913  -0.20216394    1.2773349  0.021426267  -0.20216394    1.4794989    24701 
 7997000  0.055114563  -0.19870348    1.2743658   0.02156267  -0.19870348    1.4730693    24641 
 7998000  0.055103419  -0.19814012    1.2737353  0.020971472  -0.19814012    1.4718754    24656 
 7999000  0.055244378  -0.19880295     1.277736  0.021345569  -0.19880295    1.4765389    24641 
 8000000  0.055225804  -0.19874567    1.2775364  0.021102267  -0.19874567    1.4762821    24637 
Loop time of 7468.3 on 192 procs for 5000000 steps with 24637 atoms

Performance: 289222.499 tau/day, 669.497 timesteps/s
99.0% CPU use with 192 MPI tasks x 1 OpenMP threads

MPI task timing breakdown:
Section |  min time  |  avg time  |  max time  |%varavg|  %CPU | %total
-----------------------------------------------------------------------
Pair    | 785.58     | 1672.7     | 1933.5     | 808.0 |  99.0 | 22.40
Bond    | 3.193      | 3.3301     | 3.4741     |   3.1 | 100.0 |  0.04
Neigh   | 445.64     | 807.54     | 937.56     | 468.3 |  99.4 | 10.81
Comm    | 1222.1     | 1564       | 2858.9     |1203.7 |  98.7 | 20.94
Output  | 287.05     | 289.85     | 289.88     |   1.2 |  98.9 |  3.88
Modify  | 2984.5     | 3053.1     | 3293.1     | 175.5 |  99.2 | 40.88
Other   |            | 77.76      |            |       |       |  1.04

Nlocal:        128.318 ave         162 max          98 min
Histogram: 2 13 24 27 47 29 29 10 9 2
Nghost:        169.427 ave         205 max         120 min
Histogram: 5 6 19 18 14 24 45 29 19 13
Neighs:        174.661 ave         350 max          85 min
Histogram: 6 30 52 48 30 12 9 2 1 2

Total # of neighbors = 33535
Ave neighs/atom = 1.3611641
Ave special neighs/atom = 0.0000000
Neighbor list builds = 505000
Dangerous builds = 450000

write_restart   restart_write.dat
System init for write_restart ...
write_data	data.write
System init for write_data ...
WARNING: Not all mixed pair coeffs generated from mixing. Use write_data with 'pair ij' option to store all pair coeffs. (src/write_data.cpp:312)

Total wall time: 2:04:34
