LAMMPS (29 Oct 2020)
  using 1 OpenMP thread(s) per MPI task
#Read the equilibrated lj fluid and add nanocubes

units           lj
atom_style      full
atom_modify     map array first cubes
dimension       3
boundary        p p f
pair_style      lj/cut/opt 2.5

variable        sigma           equal 1.0
variable        epsilon         equal 1.0
read_restart	restart.dat.10000000
Reading restart file ...
  restart file = 24 Dec 2020, LAMMPS = 29 Oct 2020
WARNING: Restart file used different # of processors: 192 vs. 64 (src/read_restart.cpp:697)
  restoring atom style full from restart
  orthogonal box = (0.0000000 0.0000000 0.0000000) to (80.000000 80.000000 160.00000)
  2 by 4 by 8 MPI processor grid
  restoring pair style lj/cut/opt from restart
  443961 atoms
Finding 1-2 1-3 1-4 neighbors ...
  special bond factors lj:    0.0      0.0      0.0     
  special bond factors coul:  0.0      0.0      0.0     
     0 = max # of 1-2 neighbors
     0 = max # of 1-3 neighbors
     0 = max # of 1-4 neighbors
     1 = max # of special neighbors
  special bonds CPU = 2.150 seconds
  read_restart CPU = 2.917 seconds

group		solvent type 1
443961 atoms in group solvent

read_data	data_150_s2.cubes group cubes add append
Reading data file ...
  orthogonal box = (0.0000000 0.0000000 0.0000000) to (80.000000 80.000000 160.00000)
  2 by 4 by 8 MPI processor grid
  reading atoms ...
  200025 atoms
  reading velocities ...
  200025 velocities
Finding 1-2 1-3 1-4 neighbors ...
  special bond factors lj:    0.0      0.0      0.0     
  special bond factors coul:  0.0      0.0      0.0     
     0 = max # of 1-2 neighbors
     0 = max # of 1-3 neighbors
     0 = max # of 1-4 neighbors
     1 = max # of special neighbors
  special bonds CPU = 0.017 seconds
  read_data CPU = 0.752 seconds

group 		hull  type 2
78050 atoms in group hull
group 		dummy type 3
121975 atoms in group dummy

neighbor      0.4 bin
neigh_modify  exclude molecule/intra cubes


pair_modify   shift yes

pair_coeff    1 1 1.0 1.0 #solvent
pair_coeff    2 2 1.0 1.0 1.12 #np
pair_coeff    3 3 0.0 0.0 0.0 #dummy
pair_coeff    2 3 0.0 0.0 0.0 #np dummy
pair_coeff    1 2 ${sol} 1.0  #np solvent
pair_coeff    1 2 .50 1.0  
pair_coeff    1 3 0.0 0.0 2.5 #dummy solvent

# delete solvent where the cubes are
delete_atoms  overlap 1.0 solvent cubes
System init for delete_atoms ...
Unused restart file peratom fix info:
  fix style: STORE, fix ID: bin1_COMPUTE_STORE
Neighbor list info ...
  update every 1 steps, delay 10 steps, check yes
  max neighbors/atom: 2000, page size: 100000
  master list distance cutoff = 2.9
  ghost atom cutoff = 2.9
  binsize = 1.45, bins = 56 56 111
  2 neighbor lists, perpetual/occasional/extra = 1 1 0
  (1) command delete_atoms, occasional
      attributes: full, newton on
      pair build: full/bin
      stencil: full/bin/3d
      bin: standard
  (2) pair lj/cut/opt, perpetual
      attributes: half, newton on
      pair build: half/bin/newton
      stencil: half/bin/3d/newton
      bin: standard
WARNING: Delete_atoms cutoff > minimum neighbor cutoff (src/delete_atoms.cpp:307)
WARNING: Ignoring 'compress yes' for molecular system (src/delete_atoms.cpp:125)
Deleted 136462 atoms, new total = 507524

pair_coeff    1 1 1.0 1.0 #solvent
pair_coeff    2 2 1.0 1.0 1.12 #np
pair_coeff    3 3 0.0 0.0 0.0 #dummy
pair_coeff    2 3 0.0 0.0 0.0 #np dummy
pair_coeff    1 2 ${sol} 1.0  #np solvent
pair_coeff    1 2 .50 1.0  
pair_coeff    1 3 0.0 0.0 0.0 #dummy solvent


comm_modify   mode multi cutoff/multi 1 2.5 cutoff/multi 2 2.5 cutoff/multi 3 6.95

reset_timestep 	0

balance 	1.05 shift z 10 1.05
Balancing ...
Neighbor list info ...
  update every 1 steps, delay 10 steps, check yes
  max neighbors/atom: 2000, page size: 100000
  master list distance cutoff = 2.9
  ghost atom cutoff = 6.95
  binsize = 1.45, bins = 56 56 111
  1 neighbor lists, perpetual/occasional/extra = 1 0 0
  (1) pair lj/cut/opt, perpetual
      attributes: half, newton on
      pair build: half/bin/newton
      stencil: half/bin/3d/newton
      bin: standard
 rebalancing time: 0.024 seconds
  iteration count = 4
  initial/final maximal load/proc = 10743.000 8939.0000
  initial/final imbalance factor  = 1.3547182 1.1272295
  x cuts: 0.0000000 0.5 1.0000000
  y cuts: 0.0000000 0.25 0.5 0.75 1.0000000
  z cuts: 0.0000000 0.1015625 0.1953125 0.2890625 0.3828125 0.484375 0.578125 0.671875 1.0000000

####################### WALLS ###########################

variable       epsilonWall equal 2*${epsilon}
variable       epsilonWall equal 2*1
variable       repulsive   equal   0.7147*${sigma}
variable       repulsive   equal   0.7147*1
variable       full	   equal   3*${sigma}
variable       full	   equal   3*1
region         lowWall block EDGE EDGE EDGE EDGE EDGE 2

fix            topWall all wall/lj93 zhi EDGE 	       ${epsilonWall} ${sigma} ${repulsive} units box
fix            topWall all wall/lj93 zhi EDGE 	       2 ${sigma} ${repulsive} units box
fix            topWall all wall/lj93 zhi EDGE 	       2 1 ${repulsive} units box
fix            topWall all wall/lj93 zhi EDGE 	       2 1 0.7147 units box
fix            lowSol solvent wall/lj93 zlo EDGE                ${epsilonWall} ${sigma} ${full} units box
fix            lowSol solvent wall/lj93 zlo EDGE                2 ${sigma} ${full} units box
fix            lowSol solvent wall/lj93 zlo EDGE                2 1 ${full} units box
fix            lowSol solvent wall/lj93 zlo EDGE                2 1 3 units box
fix 	       lowCub cubes wall/lj93 zlo EDGE                ${epsilonWall} ${sigma} ${repulsive} units box
fix 	       lowCub cubes wall/lj93 zlo EDGE                2 ${sigma} ${repulsive} units box
fix 	       lowCub cubes wall/lj93 zlo EDGE                2 1 ${repulsive} units box
fix 	       lowCub cubes wall/lj93 zlo EDGE                2 1 0.7147 units box


###################### COMPUTES ##########################

compute        bin1 solvent chunk/atom bin/1d z lower 1.0 units box
compute        bin3 solvent chunk/atom bin/3d x lower 1.0 y lower 1.0 z lower 1.0 units box

compute 	pe solvent 	   pe/atom
compute 	pe2 all 	   pe/atom

######################  FIXES ############################


fix             peclet solvent ave/chunk 10 10 10000 bin1 density/number norm                  none ave one file density.profile

fix              temp solvent ave/chunk 10 10 10000 bin1 temp norm                  none ave one file temp.profile

fix 		 dens solvent ave/chunk 10 10 500000 bin3 density/number norm 		 none ave one file dens3.profile

fix		 temp2 solvent ave/chunk 10 10 500000 bin3 temp norm none ave one file temp3.profile

fix 		pe solvent ave/chunk 1 1 500000 bin3 c_pe norm none ave one file pe3.profile

fix             1 cubes rigid/nve/small molecule
  create bodies CPU = 0.011 seconds
  175 rigid bodies with 200025 atoms
  6.9282032 = max distance from body owner to body atom

fix             2 solvent nve# temp ${temp} ${temp} 10


## Thermostat
region          regthermo block EDGE EDGE EDGE EDGE 0 15
group           thermo dynamic solvent region regthermo every 1000
dynamic group thermo defined
fix             3 thermo langevin ${temp} ${temp} 10 156453
fix             3 thermo langevin 1.0 ${temp} 10 156453
fix             3 thermo langevin 1.0 1.0 10 156453


#### Load balancing

fix             bal all balance 1000 1.05 shift z 10 1.05

############### Diagnostics and computes ###################

compute        	com cubes          rigid/local   1 mol x y z
compute        	quat cubes         rigid/local   1 mol quatw quati quatj quatk

compute 	cc2 cubes 	   chunk/atom 	 molecule
compute 	msd cubes 	   msd/chunk 	 cc2

fix 		msd all ave/time  1 1 10000 c_msd[*] file dump.msd ave one mode vector

dump            1 all custom 500000 dump.lammpstrj id mol type x y z vx vy vz c_pe2
dump		sol  solvent custom 500000 dump.soltrj id x y z vx vy vz c_pe
dump		cubetrj cubes custom 500000 cubes.lammpstrj id mol type x y z vx vy vz
dump            com cubes local 100000 dump.*.xyz c_com[*]
dump	        xyz hull xyz 100000 cubes.xyz
dump            quat cubes      local 100000 dump.*.quat c_quat[*]
dump		order cubes 	local 100000 dump.*.order c_com[*] c_quat[*]
#dump		mol cubes molfile 10000 mol.xyz xyz


dump            2 all image 100000 image.*.png type type zoom 1.5 size 1280 720
dump_modify     2 pad 8
dump		image cubes image 100000 image_cubes.*.png type type zoom 1.5 size 1280 720
dump_modify	image pad 8
dump            3 all movie 5000 movie.avi type type zoom 1.5 size 1280 720
dump		4 cubes movie 5000 movie_cubes.avi type type size 1280 720


thermo          1000
thermo_style    custom step temp epair evdwl etotal press pe ke atoms

restart         1000000 restart.dat
timestep        0.005
timer           full
New timer settings: style=full  mode=nosync  timeout=off

run 		10000000
Per MPI rank memory allocation (min/avg/max) = 91.72 | 101.4 | 102.8 Mbytes
Step Temp E_pair E_vdwl TotEng Press PotEng KinEng Atoms 
       0    1.0158521   -1.8545224   -1.8545224  -0.93024672 -0.022883804   -1.8545224   0.92427565   507524 
    1000    1.0097677   -1.8493199   -1.8493199  -0.93058018  0.085422237   -1.8493199   0.91873974   507524 
    2000    1.0070098   -1.8476858   -1.8476858  -0.93145538  0.090903197   -1.8476858   0.91623038   507524 
    3000    1.0080288   -1.8488133   -1.8488133  -0.93165575  0.080139049   -1.8488133   0.91715755   507524 
    4000    1.0060653   -1.8467981   -1.8467981  -0.93142697  0.079063646   -1.8467981   0.91537109   507524 
    5000    1.0036749   -1.8445585   -1.8445585   -0.9313624  0.078578002   -1.8445585   0.91319614   507524 
    6000    1.0016415   -1.8438024   -1.8438024  -0.93245635  0.079893127   -1.8438024   0.91134604   507524 
    7000   0.99925615    -1.842112    -1.842112  -0.93293625  0.073876416    -1.842112   0.90917574   507524 
    8000   0.99962159   -1.8418902   -1.8418902  -0.93238193  0.071765423   -1.8418902   0.90950825   507524 
    9000   0.99659607   -1.8401398   -1.8401398  -0.93338433  0.076755524   -1.8401398   0.90675546   507524 
   10000   0.99701764   -1.8404258   -1.8404258  -0.93328675  0.076612815   -1.8404258   0.90713903   507524 
   11000   0.99642209   -1.8395166   -1.8395166  -0.93291948  0.067369926   -1.8395166   0.90659717   507524 
   12000   0.99676386   -1.8388482   -1.8388482  -0.93194011  0.067147348   -1.8388482   0.90690813   507524 
   13000   0.99740315    -1.837728    -1.837728  -0.93023826  0.070225173    -1.837728   0.90748979   507524 
   14000   0.99731481     -1.83708     -1.83708  -0.92967058   0.06767051     -1.83708   0.90740941   507524 
   15000   0.99563002   -1.8357625   -1.8357625  -0.92988596  0.069346903   -1.8357625   0.90587651   507524 
   16000   0.99507707   -1.8339978   -1.8339978   -0.9286244  0.066655758   -1.8339978    0.9053734   507524 
   17000   0.99654964   -1.8340196   -1.8340196  -0.92730638  0.067114007   -1.8340196   0.90671322   507524 
   18000   0.99676606   -1.8333689   -1.8333689  -0.92645876   0.06517598   -1.8333689   0.90691013   507524 
   19000   0.99638819   -1.8326958   -1.8326958   -0.9261295  0.067805816   -1.8326958   0.90656633   507524 
   20000     0.997581   -1.8327778   -1.8327778  -0.92512621  0.069819828   -1.8327778   0.90765161   507524 
   21000   0.99606323    -1.831081    -1.831081  -0.92481038  0.064326154    -1.831081   0.90627066   507524 
   22000   0.99489608   -1.8291281   -1.8291281  -0.92391936  0.064074752   -1.8291281   0.90520872   507524 
   23000   0.99750485   -1.8305678   -1.8305678  -0.92298552  0.064689511   -1.8305678   0.90758232   507524 
   24000   0.99642556   -1.8293881   -1.8293881  -0.92278777  0.067922873   -1.8293881   0.90660032   507524 
   25000   0.99698006   -1.8285937   -1.8285937   -0.9214889  0.062066864   -1.8285937   0.90710484   507524 
   26000   0.99543502   -1.8273225   -1.8273225  -0.92162345  0.063883296   -1.8273225   0.90569908   507524 
   27000   0.99374083   -1.8255188   -1.8255188   -0.9213612  0.065589213   -1.8255188   0.90415762   507524 
   28000   0.99431278   -1.8272453   -1.8272453  -0.92256732  0.059393217   -1.8272453   0.90467801   507524 
   29000   0.99661561   -1.8279256   -1.8279256  -0.92115238  0.059026037   -1.8279256   0.90677324   507524 
   30000   0.99633417   -1.8274365   -1.8274365  -0.92091937   0.07061753   -1.8274365   0.90651717   507524 
   31000   0.99732723   -1.8273235   -1.8273235  -0.91990277  0.066954311   -1.8273235   0.90742071   507524 
   32000   0.99662923   -1.8266767   -1.8266767   -0.9198911  0.062959012   -1.8266767   0.90678564   507524 
   33000   0.99795336   -1.8282016   -1.8282016  -0.92021116  0.065250906   -1.8282016    0.9079904   507524 
   34000   0.99659598   -1.8264909   -1.8264909  -0.91973553  0.071252633   -1.8264909   0.90675538   507524 
   35000   0.99736362   -1.8270731   -1.8270731  -0.91961932  0.067023308   -1.8270731   0.90745382   507524 
   36000    0.9972152   -1.8275376   -1.8275376  -0.92021886  0.068949591   -1.8275376   0.90731878   507524 
   37000   0.99912438   -1.8292904   -1.8292904  -0.92023451  0.066670839   -1.8292904   0.90905586   507524 
   38000    1.0000889   -1.8295983   -1.8295983  -0.91966492  0.067217479   -1.8295983    0.9099334   507524 
   39000   0.99877827   -1.8288367   -1.8288367  -0.92009571   0.06846582   -1.8288367   0.90874095   507524 
   40000    1.0000638   -1.8299929   -1.8299929  -0.92008237  0.068159824   -1.8299929   0.90991055   507524 
   41000    1.0003146   -1.8295211   -1.8295211  -0.91938226  0.072365148   -1.8295211    0.9101388   507524 
   42000   0.99981974   -1.8297162   -1.8297162  -0.92002767  0.068394872   -1.8297162   0.90968853   507524 
   43000    1.0000927   -1.8290224   -1.8290224  -0.91908556  0.073361811   -1.8290224   0.90993684   507524 
   44000    1.0001462   -1.8289452   -1.8289452  -0.91895962  0.075618008   -1.8289452   0.90998559   507524 
   45000    1.0005477   -1.8309264   -1.8309264  -0.92057554  0.073415963   -1.8309264   0.91035087   507524 
   46000    1.0007257   -1.8316366   -1.8316366  -0.92112377  0.066071406   -1.8316366   0.91051282   507524 
   47000    1.0011413    -1.832127    -1.832127  -0.92123612  0.077109584    -1.832127   0.91089092   507524 
   48000    1.0036063   -1.8349228   -1.8349228  -0.92178901  0.069549929   -1.8349228   0.91313374   507524 
   49000    1.0005233   -1.8336133   -1.8336133  -0.92328462  0.077830219   -1.8336133   0.91032864   507524 
   50000   0.99982818   -1.8331179   -1.8331179  -0.92342168  0.073126424   -1.8331179   0.90969621   507524 
   51000   0.99913521   -1.8328597   -1.8328597  -0.92379403  0.080398211   -1.8328597   0.90906571   507524 
   52000   0.99874786   -1.8332884   -1.8332884  -0.92457516  0.065990378   -1.8332884   0.90871327   507524 
   53000   0.99957732   -1.8342689   -1.8342689  -0.92480089  0.069494467   -1.8342689   0.90946796   507524 
   54000   0.99870363   -1.8343758   -1.8343758  -0.92570275  0.075531873   -1.8343758   0.90867303   507524 
   55000   0.99970427   -1.8354347   -1.8354347  -0.92585118  0.073226255   -1.8354347   0.90958347   507524 
   56000    1.0014677   -1.8368693   -1.8368693  -0.92568139   0.07097628   -1.8368693    0.9111879   507524 
   57000   0.99943291   -1.8350285   -1.8350285  -0.92569197  0.068941506   -1.8350285   0.90933657   507524 
   58000    0.9992993   -1.8354374   -1.8354374  -0.92622235  0.070229357   -1.8354374   0.90921501   507524 
   59000   0.99965882   -1.8352757   -1.8352757  -0.92573358  0.070855441   -1.8352757   0.90954212   507524 
   60000    1.0016449   -1.8368225   -1.8368225  -0.92547329  0.072887449   -1.8368225    0.9113492   507524 
   61000   0.99975787   -1.8350505   -1.8350505  -0.92541822  0.068731631   -1.8350505   0.90963224   507524 
   62000   0.99992237   -1.8349153   -1.8349153  -0.92513337  0.069983305   -1.8349153   0.90978191   507524 
   63000    1.0007307   -1.8355632   -1.8355632   -0.9250459   0.07166481   -1.8355632   0.91051732   507524 
   64000   0.99928036   -1.8334433   -1.8334433  -0.92424554  0.074831342   -1.8334433   0.90919777   507524 
   65000   0.99959456   -1.8343395   -1.8343395  -0.92485581  0.075085785   -1.8343395   0.90948364   507524 
   66000    1.0006897   -1.8351798   -1.8351798   -0.9246998  0.076514956   -1.8351798   0.91048003   507524 
   67000    1.0017666   -1.8363707   -1.8363707  -0.92491079  0.072783333   -1.8363707   0.91145986   507524 
   68000   0.99953146   -1.8358392   -1.8358392    -0.926413  0.076857686   -1.8358392   0.90942624   507524 
   69000     1.000756   -1.8364345   -1.8364345  -0.92589418  0.070599738   -1.8364345   0.91054036   507524 
   70000    0.9987414    -1.833953    -1.833953  -0.92524563  0.079420055    -1.833953    0.9087074   507524 
   71000   0.99733733   -1.8325135   -1.8325135  -0.92508359  0.063822105   -1.8325135   0.90742991   507524 
   72000   0.99713132    -1.831444    -1.831444  -0.92420151  0.073080009    -1.831444   0.90724246   507524 
   73000   0.99894002   -1.8340407   -1.8340407  -0.92515258  0.066356908   -1.8340407   0.90888812   507524 
   74000   0.99832705   -1.8329114   -1.8329114  -0.92458096  0.070978726   -1.8329114    0.9083304   507524 
   75000   0.99611266   -1.8308026   -1.8308026  -0.92448697  0.070249099   -1.8308026   0.90631563   507524 
   76000   0.99724423   -1.8319448   -1.8319448  -0.92459957  0.056862527   -1.8319448   0.90734519   507524 
   77000   0.99836402   -1.8331863   -1.8331863  -0.92482224  0.070619226   -1.8331863   0.90836404   507524 
   78000   0.99746248   -1.8316577   -1.8316577  -0.92411393  0.066016745   -1.8316577   0.90754377   507524 
   79000   0.99704487   -1.8300328   -1.8300328  -0.92286896  0.062445863   -1.8300328   0.90716381   507524 
   80000   0.99849426   -1.8311538   -1.8311538   -0.9226713  0.064413753   -1.8311538   0.90848254   507524 
   81000   0.99778046   -1.8311284   -1.8311284  -0.92329531  0.068553585   -1.8311284   0.90783308   507524 
   82000   0.99868644   -1.8320172   -1.8320172  -0.92335985  0.073272008   -1.8320172   0.90865739   507524 
   83000   0.99956424   -1.8322499   -1.8322499  -0.92279387  0.067966011   -1.8322499   0.90945606   507524 
   84000   0.99864309   -1.8299456   -1.8299456  -0.92132769  0.067984544   -1.8299456   0.90861795   507524 
   85000    0.9988895   -1.8300005   -1.8300005  -0.92115832  0.060812005   -1.8300005   0.90884214   507524 
   86000    0.9980923   -1.8294196   -1.8294196  -0.92130281  0.068896204   -1.8294196   0.90811682   507524 
   87000   0.99795682    -1.828804    -1.828804  -0.92081047  0.074031837    -1.828804   0.90799355   507524 
   88000   0.99812495   -1.8289277   -1.8289277  -0.92078117  0.069503256   -1.8289277   0.90814652   507524 
   89000   0.99732768   -1.8279995   -1.8279995  -0.92057833  0.073017497   -1.8279995   0.90742112   507524 
   90000   0.99878079   -1.8292207   -1.8292207  -0.92047743   0.07216641   -1.8292207   0.90874324   507524 
   91000   0.99623533   -1.8266333   -1.8266333   -0.9202061  0.070595964   -1.8266333   0.90642725   507524 
   92000   0.99875082   -1.8295778   -1.8295778  -0.92086178  0.069405163   -1.8295778   0.90871597   507524 
   93000   0.99751258   -1.8284568   -1.8284568  -0.92086739  0.070228005   -1.8284568   0.90758936   507524 
   94000   0.99808774   -1.8284064   -1.8284064  -0.92029369  0.070761889   -1.8284064   0.90811267   507524 
   95000    1.0009711   -1.8309495   -1.8309495  -0.92021339  0.069370832   -1.8309495    0.9107361   507524 
   96000   0.99818155     -1.82861     -1.82861  -0.92041196  0.064270209     -1.82861   0.90819802   507524 
   97000   0.99880228   -1.8278703   -1.8278703  -0.91910749  0.069574285   -1.8278703   0.90876279   507524 
   98000    1.0008627   -1.8294301   -1.8294301  -0.91879255  0.068011775   -1.8294301    0.9106375   507524 
   99000    1.0002669   -1.8293132   -1.8293132  -0.91921784  0.066582836   -1.8293132   0.91009539   507524 
  100000   0.99760355   -1.8272747   -1.8272747  -0.91960253  0.068435113   -1.8272747   0.90767212   507524 
  101000     0.999291   -1.8287092   -1.8287092  -0.91950171  0.067508024   -1.8287092   0.90920745   507524 
  102000   0.99809417   -1.8285188   -1.8285188  -0.92040028  0.072269057   -1.8285188   0.90811851   507524 
  103000   0.99908631   -1.8293329   -1.8293329  -0.92031172  0.074829702   -1.8293329   0.90902121   507524 
  104000   0.99741982   -1.8279179   -1.8279179  -0.92041292  0.066031334   -1.8279179   0.90750495   507524 
  105000   0.99724068   -1.8283432   -1.8283432   -0.9210012  0.061845772   -1.8283432   0.90734196   507524 
  106000   0.99786771   -1.8280255   -1.8280255  -0.92011299  0.065902676   -1.8280255   0.90791247   507524 
  107000    0.9981017   -1.8288456   -1.8288456  -0.92072022  0.067612176   -1.8288456   0.90812536   507524 
  108000   0.99882623   -1.8288386   -1.8288386  -0.92005406  0.069496545   -1.8288386   0.90878458   507524 
  109000   0.99962606   -1.8285194   -1.8285194  -0.91900712  0.071089868   -1.8285194   0.90951231   507524 
  110000   0.99886403   -1.8283766   -1.8283766  -0.91955763  0.070915913   -1.8283766   0.90881897   507524 
  111000   0.99923993     -1.82855     -1.82855  -0.91938898  0.059106571     -1.82855   0.90916099   507524 
  112000      1.00072   -1.8306678   -1.8306678  -0.92016013  0.070822439   -1.8306678   0.91050766   507524 
  113000   0.99843522   -1.8287364   -1.8287364  -0.92030759  0.072339558   -1.8287364   0.90842882   507524 
  114000   0.99891067    -1.828903    -1.828903   -0.9200416  0.076423896    -1.828903   0.90886141   507524 
  115000   0.99743305   -1.8274335   -1.8274335  -0.91991655   0.07145562   -1.8274335     0.907517   507524 
  116000   0.99878703   -1.8285126   -1.8285126  -0.91976368  0.074449078   -1.8285126   0.90874891   507524 
  117000    1.0008608    -1.831299    -1.831299  -0.92066326  0.071486176    -1.831299   0.91063576   507524 
  118000   0.99753174   -1.8280844   -1.8280844  -0.92047758  0.073557142   -1.8280844   0.90760679   507524 
  119000   0.99804551   -1.8283126   -1.8283126  -0.92023838  0.069269743   -1.8283126   0.90807424   507524 
  120000   0.99880752   -1.8287159   -1.8287159  -0.91994835  0.067150708   -1.8287159   0.90876756   507524 
  121000    1.0007405   -1.8305854   -1.8305854  -0.92005904  0.063664873   -1.8305854   0.91052633   507524 
  122000    1.0010085   -1.8305663   -1.8305663  -0.91979624  0.072309947   -1.8305663   0.91077008   507524 
  123000   0.99972008   -1.8300928   -1.8300928  -0.92049499   0.07393949   -1.8300928   0.90959786   507524 
  124000   0.99816394    -1.829053    -1.829053  -0.92087104  0.068956787    -1.829053   0.90818199   507524 
  125000   0.99957526   -1.8303429   -1.8303429   -0.9208768   0.07476473   -1.8303429   0.90946609   507524 
  126000    1.0005705   -1.8322282   -1.8322282   -0.9218566  0.071943356   -1.8322282   0.91037159   507524 
  127000    0.9995038   -1.8306789   -1.8306789   -0.9212778  0.071011729   -1.8306789   0.90940107   507524 
  128000    0.9975737   -1.8277042   -1.8277042  -0.92005926  0.076165894   -1.8277042   0.90764496   507524 
  129000    1.0025725   -1.8322438   -1.8322438  -0.92005066  0.068254539   -1.8322438   0.91219312   507524 
  130000     1.001837   -1.8315776   -1.8315776   -0.9200536  0.075380982   -1.8315776   0.91152395   507524 
  131000    1.0016874   -1.8311483   -1.8311483   -0.9197605  0.067172648   -1.8311483   0.91138778   507524 
  132000    1.0016469   -1.8317408   -1.8317408  -0.92038984  0.074769106   -1.8317408     0.911351   507524 
  133000    1.0009454   -1.8315557   -1.8315557  -0.92084297    0.0716483   -1.8315557   0.91071271   507524 
  134000    1.0003945   -1.8301534   -1.8301534  -0.91994189   0.07082478   -1.8301534   0.91021152   507524 
  135000   0.99984074   -1.8302615   -1.8302615  -0.92055387   0.06267292   -1.8302615   0.90970764   507524 
  136000   0.99936563   -1.8298771   -1.8298771  -0.92060178  0.068737199   -1.8298771   0.90927536   507524 
  137000   0.99904484   -1.8295546   -1.8295546  -0.92057113  0.066090596   -1.8295546   0.90898349   507524 
  138000   0.99934614   -1.8294995   -1.8294995  -0.92024193  0.073488046   -1.8294995   0.90925762   507524 
  139000    1.0004703   -1.8301998   -1.8301998  -0.91991929  0.070925843   -1.8301998   0.91028048   507524 
  140000    1.0012607   -1.8304499   -1.8304499  -0.91945026  0.068605819   -1.8304499   0.91099959   507524 
  141000    1.0004308      -1.8287      -1.8287  -0.91845546   0.07126796      -1.8287   0.91024452   507524 
  142000    1.0009481   -1.8299825   -1.8299825  -0.91926733  0.068137319   -1.8299825   0.91071517   507524 
  143000   0.99913838    -1.828004    -1.828004  -0.91893545  0.067444221    -1.828004   0.90906859   507524 
  144000   0.99843052   -1.8276754   -1.8276754   -0.9192509  0.070485344   -1.8276754   0.90842454   507524 
  145000    1.0014843   -1.8303226   -1.8303226  -0.91911954  0.068485802   -1.8303226   0.91120302   507524 
  146000    1.0004971   -1.8292423   -1.8292423  -0.91893743  0.069484736   -1.8292423   0.91030487   507524 
  147000    1.0000313   -1.8282076   -1.8282076  -0.91832656  0.072146852   -1.8282076   0.90988101   507524 
  148000    1.0004685   -1.8278401   -1.8278401   -0.9175613  0.074953842   -1.8278401   0.91027879   507524 
  149000    1.0006925   -1.8280569   -1.8280569  -0.91757423  0.064850585   -1.8280569   0.91048264   507524 
  150000   0.99787052   -1.8270541   -1.8270541  -0.91913912  0.075118305   -1.8270541   0.90791502   507524 
  151000   0.99936466   -1.8287574   -1.8287574  -0.91948287  0.075561891   -1.8287574   0.90927448   507524 
  152000   0.99729853   -1.8263716   -1.8263716  -0.91897698  0.074787225   -1.8263716    0.9073946   507524 
  153000   0.99884738   -1.8281965   -1.8281965  -0.91939266  0.070284697   -1.8281965   0.90880382   507524 
  154000   0.99737506   -1.8273587   -1.8273587  -0.91989448  0.066367024   -1.8273587   0.90746423   507524 
  155000    0.9994227   -1.8274634   -1.8274634  -0.91813612  0.064507875   -1.8274634   0.90932728   507524 
  156000    1.0006397   -1.8285556   -1.8285556    -0.918121  0.070835359   -1.8285556   0.91043457   507524 
  157000    1.0000009   -1.8284753   -1.8284753  -0.91862198  0.066882457   -1.8284753   0.90985336   507524 
  158000    1.0000009   -1.8286461   -1.8286461  -0.91879279  0.071855087   -1.8286461   0.90985331   507524 
  159000   0.99796822   -1.8275576   -1.8275576  -0.91955369  0.069599496   -1.8275576   0.90800392   507524 
  160000    1.0007042   -1.8300512   -1.8300512  -0.91955795  0.071338282   -1.8300512   0.91049324   507524 
  161000    1.0012696   -1.8295066   -1.8295066  -0.91849895  0.069579976   -1.8295066   0.91100767   507524 
  162000    1.0013042   -1.8290426   -1.8290426  -0.91800344  0.073804559   -1.8290426   0.91103917   507524 
  163000   0.99997802   -1.8283213   -1.8283213  -0.91848873  0.061605373   -1.8283213   0.90983254   507524 
  164000    1.0007773   -1.8294548   -1.8294548    -0.918895  0.072290068   -1.8294548   0.91055976   507524 
  165000    1.0010243   -1.8289757   -1.8289757  -0.91819117  0.066809944   -1.8289757    0.9107845   507524 
  166000   0.99871053   -1.8270287   -1.8270287  -0.91834937  0.072165425   -1.8270287   0.90867931   507524 
  167000    1.0004193    -1.828603    -1.828603  -0.91836893   0.07267072    -1.828603   0.91023403   507524 
  168000    1.0012963   -1.8287251   -1.8287251  -0.91769313   0.06470943   -1.8287251   0.91103199   507524 
  169000    1.0015566   -1.8292366   -1.8292366   -0.9179678  0.064895448   -1.8292366   0.91126879   507524 
  170000    1.0023397   -1.8317663   -1.8317663  -0.91978498  0.060376355   -1.8317663   0.91198136   507524 
  171000    1.0013421   -1.8295255   -1.8295255  -0.91845188  0.072450571   -1.8295255   0.91107363   507524 
  172000     1.002182    -1.830609    -1.830609  -0.91877122  0.071734348    -1.830609   0.91183782   507524 
  173000    1.0008821    -1.829637    -1.829637  -0.91898191  0.066298414    -1.829637   0.91065512   507524 
  174000     1.003533    -1.832213    -1.832213  -0.91914593   0.07156736    -1.832213   0.91306707   507524 
  175000    1.0010525   -1.8297226   -1.8297226  -0.91891242   0.06953968   -1.8297226   0.91081017   507524 
  176000    1.0020417   -1.8299273   -1.8299273  -0.91821717  0.066434985   -1.8299273   0.91171016   507524 
  177000    1.0001859   -1.8272951   -1.8272951  -0.91727348  0.065493372   -1.8272951   0.91002166   507524 
  178000    1.0036766   -1.8298021   -1.8298021  -0.91660437  0.067524852   -1.8298021   0.91319771   507524 
  179000     1.002034   -1.8284625   -1.8284625  -0.91675926  0.069126087   -1.8284625   0.91170322   507524 
  180000    1.0003085   -1.8266499   -1.8266499  -0.91651671  0.070018508   -1.8266499   0.91013322   507524 
  181000    1.0017508   -1.8278878   -1.8278878  -0.91644232  0.076150788   -1.8278878   0.91144547   507524 
  182000    1.0000539   -1.8272683   -1.8272683  -0.91736668  0.069308169   -1.8272683   0.90990161   507524 
  183000    1.0014386   -1.8289479   -1.8289479  -0.91778644  0.063732463   -1.8289479   0.91116143   507524 
  184000    1.0018991   -1.8283151   -1.8283151  -0.91673463   0.07208737   -1.8283151   0.91158048   507524 
  185000    1.0010257    -1.828626    -1.828626  -0.91784023  0.074068944    -1.828626   0.91078576   507524 
  186000    1.0014507   -1.8293798   -1.8293798  -0.91820732   0.07214263   -1.8293798    0.9111725   507524 
  187000    1.0016656     -1.82889     -1.82889  -0.91752195  0.070969322     -1.82889   0.91136801   507524 
  188000    1.0004434   -1.8275022   -1.8275022  -0.91724618  0.070672111   -1.8275022   0.91025599   507524 
  189000    1.0006071   -1.8282891   -1.8282891  -0.91788421  0.072258237   -1.8282891   0.91040487   507524 
  190000    1.0008426   -1.8285118   -1.8285118  -0.91789259  0.064011651   -1.8285118   0.91061923   507524 
  191000    1.0000689   -1.8277881   -1.8277881  -0.91787286  0.079971021   -1.8277881   0.90991526   507524 
  192000     1.000628   -1.8287723   -1.8287723  -0.91834834  0.075415944   -1.8287723   0.91042394   507524 
  193000    1.0001068   -1.8280613   -1.8280613  -0.91811157  0.069960239   -1.8280613    0.9099497   507524 
  194000   0.99938925   -1.8278775   -1.8278775  -0.91858063   0.06562355   -1.8278775   0.90929684   507524 
  195000   0.99877343   -1.8264498   -1.8264498  -0.91771322  0.072927606   -1.8264498   0.90873654   507524 
  196000    1.0008108   -1.8286335   -1.8286335  -0.91804327  0.067665791   -1.8286335   0.91059025   507524 
  197000    1.0013237   -1.8291526   -1.8291526  -0.91809567  0.070354345   -1.8291526   0.91105689   507524 
  198000   0.99881022   -1.8280982   -1.8280982  -0.91932821  0.073947106   -1.8280982   0.90877002   507524 
  199000   0.99917569   -1.8276802   -1.8276802  -0.91857771  0.064874352   -1.8276802   0.90910254   507524 
  200000    1.0004777   -1.8282123   -1.8282123  -0.91792509    0.0667414   -1.8282123   0.91028721   507524 
  201000   0.99963236   -1.8272783   -1.8272783  -0.91776025  0.071325542   -1.8272783   0.90951804   507524 
  202000    1.0016502   -1.8286432   -1.8286432  -0.91728928  0.072679176   -1.8286432   0.91135396   507524 
  203000    1.0029871   -1.8287964   -1.8287964  -0.91622611  0.072719145   -1.8287964   0.91257032   507524 
  204000     1.001687   -1.8274017   -1.8274017  -0.91601429  0.074164039   -1.8274017   0.91138743   507524 
  205000   0.99999885   -1.8266764   -1.8266764  -0.91682494   0.07062954   -1.8266764    0.9098515   507524 
  206000    1.0024826   -1.8285245   -1.8285245  -0.91641321  0.066276612   -1.8285245   0.91211134   507524 
  207000    1.0019434   -1.8276355   -1.8276355  -0.91601477  0.074013085   -1.8276355   0.91162074   507524 
  208000    1.0011994   -1.8271275   -1.8271275  -0.91618368  0.072934381   -1.8271275   0.91094385   507524 
  209000    1.0010186    -1.827365    -1.827365  -0.91658572  0.066427355    -1.827365   0.91077932   507524 
  210000    1.0032112   -1.8291251   -1.8291251  -0.91635092  0.068390457   -1.8291251   0.91277422   507524 
  211000    1.0028922   -1.8285714   -1.8285714  -0.91608739  0.067594173   -1.8285714   0.91248399   507524 
  212000    1.0021775   -1.8284377   -1.8284377  -0.91660401  0.073323507   -1.8284377   0.91183373   507524 
  213000   0.99976924   -1.8268005   -1.8268005  -0.91715793   0.07798136   -1.8268005   0.90964258   507524 
  214000    1.0011416   -1.8270502   -1.8270502  -0.91615894  0.072016701   -1.8270502   0.91089125   507524 
  215000    1.0013977   -1.8261982   -1.8261982  -0.91507394  0.071916275   -1.8261982   0.91112423   507524 
  216000    1.0007462   -1.8254289   -1.8254289  -0.91489745  0.072202947   -1.8254289   0.91053144   507524 
  217000    1.0011799   -1.8262513   -1.8262513  -0.91532528  0.070024358   -1.8262513   0.91092607   507524 
  218000    1.0015167   -1.8262996   -1.8262996  -0.91506714   0.06662666   -1.8262996   0.91123249   507524 
  219000    1.0015185    -1.826168    -1.826168  -0.91493383  0.070173359    -1.826168   0.91123415   507524 
  220000    1.0022005   -1.8275601   -1.8275601  -0.91570538  0.063507598   -1.8275601   0.91185468   507524 
  221000    1.0014938    -1.826801    -1.826801  -0.91558929  0.068783314    -1.826801   0.91121168   507524 
  222000    1.0019864     -1.82659     -1.82659   -0.9149301  0.062337053     -1.82659   0.91165992   507524 
  223000    1.0029876   -1.8260036   -1.8260036  -0.91343285  0.078083321   -1.8260036    0.9125708   507524 
  224000    1.0033769   -1.8268608   -1.8268608  -0.91393575  0.070519354   -1.8268608     0.912925   507524 
  225000    1.0017472   -1.8259174   -1.8259174   -0.9144752  0.066327773   -1.8259174   0.91144219   507524 
  226000    1.0010019   -1.8250513   -1.8250513   -0.9142872  0.065380097   -1.8250513   0.91076409   507524 
  227000    1.0016435   -1.8257783   -1.8257783  -0.91443037  0.070493121   -1.8257783    0.9113479   507524 
  228000    1.0025152     -1.82561     -1.82561  -0.91346892  0.072608123     -1.82561   0.91214104   507524 
  229000    1.0028055   -1.8256299   -1.8256299  -0.91322478  0.063134451   -1.8256299   0.91240514   507524 
  230000    1.0006875   -1.8246209   -1.8246209  -0.91414283  0.068336916   -1.8246209    0.9104781   507524 
  231000    1.0018544    -1.825238    -1.825238  -0.91369822   0.06916031    -1.825238   0.91153975   507524 
  232000     1.003928   -1.8266294   -1.8266294  -0.91320295  0.068943075   -1.8266294   0.91342642   507524 
  233000    1.0028057   -1.8255944   -1.8255944  -0.91318911  0.067621135   -1.8255944   0.91240529   507524 
  234000    1.0018468   -1.8260363   -1.8260363  -0.91450339  0.071375726   -1.8260363   0.91153286   507524 
  235000     1.003669   -1.8278934   -1.8278934  -0.91470263  0.067848666   -1.8278934   0.91319078   507524 
  236000    1.0023736   -1.8265184   -1.8265184  -0.91450629   0.07082286   -1.8265184   0.91201212   507524 
  237000    1.0021137   -1.8266336   -1.8266336   -0.9148579  0.066549105   -1.8266336   0.91177574   507524 
  238000    1.0020113   -1.8258086   -1.8258086  -0.91412609  0.073144781   -1.8258086   0.91168254   507524 
  239000    1.0027204   -1.8267355   -1.8267355  -0.91440782  0.071208963   -1.8267355   0.91232771   507524 
  240000    1.0044965   -1.8291202   -1.8291202  -0.91517653  0.069094791   -1.8291202    0.9139437   507524 
  241000     1.002197   -1.8263714   -1.8263714  -0.91451994  0.069589392   -1.8263714   0.91185148   507524 
  242000    1.0035984   -1.8278839   -1.8278839  -0.91475733  0.066567996   -1.8278839   0.91312659   507524 
  243000    1.0025587   -1.8270632   -1.8270632  -0.91488262  0.070160298   -1.8270632   0.91218062   507524 
  244000    1.0035236   -1.8278442   -1.8278442  -0.91478568  0.071097633   -1.8278442   0.91305847   507524 
  245000    1.0026324    -1.826736    -1.826736  -0.91448841  0.071616522    -1.826736   0.91224762   507524 
  246000    1.0029444   -1.8264277   -1.8264277  -0.91389615  0.061338412   -1.8264277   0.91253151   507524 
  247000     1.003257   -1.8268525   -1.8268525  -0.91403663  0.074786524   -1.8268525   0.91281588   507524 
  248000    1.0025557   -1.8273705   -1.8273705  -0.91519266  0.067495585   -1.8273705   0.91217784   507524 
  249000    1.0037419   -1.8275998   -1.8275998  -0.91434268  0.072067581   -1.8275998   0.91325714   507524 
  250000    1.0019655   -1.8264927   -1.8264927  -0.91485182  0.071323888   -1.8264927   0.91164087   507524 
  251000    1.0021941   -1.8262184   -1.8262184   -0.9143695  0.075046143   -1.8262184   0.91184886   507524 
  252000    1.0022282   -1.8259247   -1.8259247  -0.91404484  0.068417474   -1.8259247   0.91187988   507524 
  253000    1.0022483   -1.8251332   -1.8251332  -0.91323503  0.077404702   -1.8251332   0.91189814   507524 
  254000    1.0044612   -1.8259512   -1.8259512  -0.91203971   0.07312018   -1.8259512   0.91391153   507524 
  255000    1.0018865   -1.8246847   -1.8246847  -0.91311573  0.072840561   -1.8246847   0.91156895   507524 
  256000    1.0026859    -1.824907    -1.824907  -0.91261074  0.066442046    -1.824907   0.91229627   507524 
  257000    1.0036835   -1.8264229   -1.8264229  -0.91321889  0.064474961   -1.8264229   0.91320398   507524 
  258000    1.0014846   -1.8238659   -1.8238659  -0.91266255  0.065345571   -1.8238659   0.91120332   507524 
  259000    1.0040516   -1.8267165   -1.8267165  -0.91317761  0.069617268   -1.8267165    0.9135389   507524 
  260000    1.0030186   -1.8269376   -1.8269376  -0.91433859  0.070268381   -1.8269376   0.91259904   507524 
  261000      1.00229   -1.8268581   -1.8268581  -0.91492201  0.064429128   -1.8268581   0.91193607   507524 
  262000     1.003175   -1.8275407   -1.8275407   -0.9147994  0.067295651   -1.8275407   0.91274128   507524 
  263000    1.0020607   -1.8266154   -1.8266154  -0.91488798  0.067661818   -1.8266154   0.91172745   507524 
  264000     1.000636   -1.8252538   -1.8252538  -0.91482259  0.065212419   -1.8252538   0.91043118   507524 
  265000    1.0019321   -1.8273058   -1.8273058  -0.91569542  0.071608081   -1.8273058   0.91161043   507524 
  266000    1.0030656   -1.8280058   -1.8280058  -0.91536404  0.066937537   -1.8280058   0.91264174   507524 
  267000    1.0015784   -1.8267942   -1.8267942  -0.91550556  0.075400196   -1.8267942   0.91128862   507524 
  268000     1.000949   -1.8270977   -1.8270977  -0.91638178  0.071141911   -1.8270977   0.91071596   507524 
  269000    1.0021802   -1.8288009   -1.8288009  -0.91696465  0.066150742   -1.8288009   0.91183622   507524 
  270000    1.0018845   -1.8277107   -1.8277107  -0.91614363  0.068619786   -1.8277107   0.91156712   507524 
  271000    1.0009534   -1.8272363   -1.8272363  -0.91651631  0.067386642   -1.8272363   0.91071998   507524 
  272000    1.0012404   -1.8284498   -1.8284498  -0.91746865  0.065590432   -1.8284498   0.91098114   507524 
  273000   0.99949039   -1.8269688   -1.8269688   -0.9175799  0.064903683   -1.8269688   0.90938887   507524 
  274000    1.0012276   -1.8286891   -1.8286891  -0.91771961  0.063169924   -1.8286891   0.91096945   507524 
  275000     1.002323    -1.828739    -1.828739  -0.91677286  0.061320404    -1.828739   0.91196615   507524 
  276000    1.0021771   -1.8299779   -1.8299779  -0.91814446  0.071543456   -1.8299779   0.91183341   507524 
  277000    1.0006937   -1.8283006   -1.8283006  -0.91781689  0.065788825   -1.8283006   0.91048373   507524 
  278000    1.0019813    -1.829441    -1.829441  -0.91778585  0.076203106    -1.829441    0.9116552   507524 
  279000    1.0021942   -1.8294837   -1.8294837  -0.91763477  0.067218218   -1.8294837   0.91184891   507524 
  280000    1.0040579    -1.830427    -1.830427  -0.91688242  0.064864386    -1.830427   0.91354462   507524 
  281000    1.0034425   -1.8298206   -1.8298206  -0.91683593  0.072709721   -1.8298206    0.9129847   507524 
  282000    1.0016388   -1.8282385   -1.8282385  -0.91689482  0.074821036   -1.8282385   0.91134364   507524 
  283000    1.0012761   -1.8272898   -1.8272898  -0.91627626   0.07425379   -1.8272898   0.91101358   507524 
  284000    1.0041886   -1.8299192   -1.8299192  -0.91625573  0.071454284   -1.8299192   0.91366351   507524 
  285000    1.0018338   -1.8275982   -1.8275982  -0.91607721  0.070835578   -1.8275982   0.91152101   507524 
  286000    1.0046696   -1.8302598   -1.8302598  -0.91615854  0.075280021   -1.8302598   0.91410121   507524 
  287000    1.0046204   -1.8304693   -1.8304693   -0.9164129  0.075728113   -1.8304693   0.91405645   507524 
  288000    1.0028528   -1.8287411   -1.8287411  -0.91629302   0.07422448   -1.8287411   0.91244812   507524 
  289000    1.0027094   -1.8286864   -1.8286864  -0.91636877  0.079303713   -1.8286864   0.91231766   507524 
  290000    1.0034487   -1.8292371   -1.8292371  -0.91624678  0.072652349   -1.8292371   0.91299035   507524 
  291000    1.0035906   -1.8294087   -1.8294087  -0.91628919  0.071112854   -1.8294087   0.91311948   507524 
  292000    1.0019036   -1.8283337   -1.8283337  -0.91674919  0.072079951   -1.8283337   0.91158455   507524 
  293000    1.0022932   -1.8283992   -1.8283992  -0.91646017  0.067371099   -1.8283992   0.91193899   507524 
  294000    1.0009134   -1.8269286   -1.8269286  -0.91624503  0.068027065   -1.8269286    0.9106836   507524 
  295000        1.002   -1.8279969   -1.8279969  -0.91632462  0.065594889   -1.8279969   0.91167224   507524 
  296000    1.0015224     -1.82723     -1.82723  -0.91599228   0.06650194     -1.82723   0.91123773   507524 
  297000    1.0014435   -1.8275416   -1.8275416   -0.9163757  0.070931589   -1.8275416   0.91116595   507524 
  298000    1.0014397   -1.8275299   -1.8275299  -0.91636745  0.066978042   -1.8275299   0.91116249   507524 
  299000    1.0031113    -1.828761    -1.828761  -0.91607759  0.069312996    -1.828761   0.91268338   507524 
  300000    1.0051957   -1.8297974   -1.8297974  -0.91521753  0.063761897   -1.8297974    0.9145799   507524 
  301000    1.0023995   -1.8270963   -1.8270963  -0.91506055  0.068737142   -1.8270963   0.91203572   507524 
  302000    1.0020106   -1.8260002   -1.8260002  -0.91431827  0.067639438   -1.8260002    0.9116819   507524 
  303000    1.0031407    -1.826413    -1.826413  -0.91370291  0.067483447    -1.826413    0.9127101   507524 
  304000    1.0032734   -1.8265928   -1.8265928  -0.91376198  0.076596535   -1.8265928   0.91283084   507524 
  305000    1.0025342   -1.8265243   -1.8265243  -0.91436607   0.06907947   -1.8265243   0.91215827   507524 
  306000    1.0020167   -1.8251053   -1.8251053  -0.91341786  0.067402036   -1.8251053   0.91168748   507524 
  307000    1.0022382   -1.8249541   -1.8249541  -0.91306513  0.069056998   -1.8249541   0.91188901   507524 
  308000    1.0020684   -1.8241496   -1.8241496  -0.91241512  0.067962563   -1.8241496   0.91173449   507524 
  309000    1.0041727   -1.8256953   -1.8256953  -0.91204615  0.062753437   -1.8256953    0.9136491   507524 
  310000   0.99924835   -1.8222115   -1.8222115  -0.91304288  0.058286772   -1.8222115   0.90916864   507524 
  311000    1.0012858   -1.8239729   -1.8239729  -0.91295042  0.068850142   -1.8239729   0.91102245   507524 
  312000    1.0016814   -1.8232801   -1.8232801  -0.91189771   0.06734186   -1.8232801   0.91138235   507524 
  313000    1.0036148   -1.8255996   -1.8255996  -0.91245808  0.070087802   -1.8255996   0.91314149   507524 
  314000    1.0031935    -1.826242    -1.826242  -0.91348388  0.066622375    -1.826242   0.91275812   507524 
  315000    1.0016086   -1.8254734   -1.8254734  -0.91415725  0.069796868   -1.8254734   0.91131611   507524 
  316000    1.0013805   -1.8257771   -1.8257771  -0.91466849  0.066105971   -1.8257771   0.91110859   507524 
  317000    1.0005565   -1.8244742   -1.8244742  -0.91411533  0.068587733   -1.8244742   0.91035886   507524 
  318000    1.0019095   -1.8250362   -1.8250362  -0.91344633  0.069318045   -1.8250362    0.9115899   507524 
  319000    1.0012312   -1.8234744   -1.8234744  -0.91250158  0.075776414   -1.8234744   0.91097279   507524 
  320000    1.0015386   -1.8245751   -1.8245751  -0.91332271  0.071800623   -1.8245751   0.91125243   507524 
  321000    1.0025757   -1.8261219   -1.8261219  -0.91392584  0.072893347   -1.8261219   0.91219608   507524 
  322000    1.0008072   -1.8239212   -1.8239212   -0.9133343  0.065648237   -1.8239212   0.91058693   507524 
  323000    1.0024256   -1.8255125   -1.8255125    -0.913453  0.074198122   -1.8255125    0.9120595   507524 
  324000    1.0018529   -1.8243166   -1.8243166  -0.91277818   0.06158272   -1.8243166   0.91153839   507524 
  325000    1.0035053   -1.8268114   -1.8268114  -0.91376954  0.071317232   -1.8268114   0.91304184   507524 
  326000     1.004666   -1.8265241   -1.8265241   -0.9124262  0.064342337   -1.8265241   0.91409792   507524 
  327000     1.000992     -1.82436     -1.82436  -0.91360484    0.0757295     -1.82436   0.91075512   507524 
  328000    1.0024548   -1.8262682   -1.8262682  -0.91418223  0.070881927   -1.8262682   0.91208602   507524 
  329000    1.0031323   -1.8265383   -1.8265383   -0.9138359  0.070588735   -1.8265383   0.91270243   507524 
  330000   0.99946523   -1.8237048   -1.8237048  -0.91433885  0.072218416   -1.8237048   0.90936597   507524 
  331000     1.000765   -1.8241291   -1.8241291  -0.91358054  0.071315963   -1.8241291    0.9105486   507524 
  332000    1.0018019    -1.825524    -1.825524  -0.91403194  0.063009942    -1.825524   0.91149202   507524 
  333000    1.0025883   -1.8263374   -1.8263374  -0.91412992  0.072321917   -1.8263374   0.91220751   507524 
  334000    1.0031079   -1.8266844   -1.8266844  -0.91400419  0.070183371   -1.8266844   0.91268023   507524 
  335000    1.0021744   -1.8260105   -1.8260105  -0.91417958  0.075439344   -1.8260105   0.91183092   507524 
  336000    1.0031923   -1.8261299   -1.8261299  -0.91337289  0.075883634   -1.8261299   0.91275704   507524 
  337000      1.00366    -1.826579    -1.826579   -0.9133964  0.070683259    -1.826579    0.9131826   507524 
  338000    1.0027343   -1.8253433   -1.8253433  -0.91300293  0.069080731   -1.8253433   0.91234038   507524 
  339000    1.0047563   -1.8266264   -1.8266264  -0.91244632  0.070860128   -1.8266264   0.91418005   507524 
  340000    1.0037851   -1.8263447   -1.8263447  -0.91304824  0.068824653   -1.8263447   0.91329645   507524 
  341000    1.0059863   -1.8282323   -1.8282323  -0.91293306  0.066036716   -1.8282323   0.91529922   507524 
  342000    1.0042665   -1.8266991   -1.8266991  -0.91296465  0.070792471   -1.8266991   0.91373442   507524 
  343000     1.005701   -1.8293204   -1.8293204  -0.91428077  0.077715633   -1.8293204   0.91503961   507524 
  344000    1.0038538   -1.8281201   -1.8281201  -0.91476114  0.077450569   -1.8281201   0.91335895   507524 
  345000     1.004337   -1.8280535   -1.8280535  -0.91425492  0.067636959   -1.8280535   0.91379856   507524 
  346000    1.0045479   -1.8279455   -1.8279455  -0.91395505  0.071595879   -1.8279455   0.91399045   507524 
  347000    1.0043839   -1.8277013   -1.8277013  -0.91386006  0.072123694   -1.8277013   0.91384121   507524 
  348000    1.0040838   -1.8279513   -1.8279513  -0.91438305  0.076664456   -1.8279513   0.91356821   507524 
  349000    1.0055447   -1.8297686   -1.8297686  -0.91487118  0.072482373   -1.8297686   0.91489738   507524 
  350000    1.0033953    -1.827595    -1.827595  -0.91465322  0.071112868    -1.827595   0.91294175   507524 
  351000    1.0033711    -1.828143    -1.828143   -0.9152233  0.067353667    -1.828143    0.9129197   507524 
  352000    1.0029961   -1.8266673   -1.8266673  -0.91408872  0.071443481   -1.8266673   0.91257856   507524 
  353000    1.0018197   -1.8266937   -1.8266937  -0.91518545  0.069384695   -1.8266937   0.91150824   507524 
  354000    1.0042511   -1.8288456   -1.8288456  -0.91512518  0.064454484   -1.8288456   0.91372044   507524 
  355000    1.0010922   -1.8260985   -1.8260985  -0.91525226  0.069739238   -1.8260985   0.91084628   507524 
  356000    1.0035447   -1.8276859   -1.8276859  -0.91460828  0.073622004   -1.8276859   0.91307766   507524 
  357000    1.0032179   -1.8262927   -1.8262927  -0.91351237  0.069281792   -1.8262927   0.91278033   507524 
  358000     1.001933   -1.8242265   -1.8242265  -0.91261523  0.073305862   -1.8242265   0.91161129   507524 
  359000    1.0015707   -1.8248703   -1.8248703  -0.91358862  0.064943378   -1.8248703   0.91128167   507524 
  360000    1.0038969   -1.8256596   -1.8256596  -0.91226138  0.070073713   -1.8256596   0.91339818   507524 
  361000    1.0042047   -1.8251734   -1.8251734  -0.91149516  0.069880953   -1.8251734   0.91367823   507524 
  362000     1.006166   -1.8266333   -1.8266333  -0.91117066  0.071875625   -1.8266333   0.91546269   507524 
  363000     1.004109   -1.8246193   -1.8246193   -0.9110282  0.061623419   -1.8246193   0.91359114   507524 
  364000    1.0028142   -1.8237957   -1.8237957  -0.91138274   0.07604351   -1.8237957     0.912413   507524 
  365000      1.00073    -1.821019    -1.821019  -0.91050225  0.071429568    -1.821019    0.9105167   507524 
  366000    1.0028321   -1.8235994   -1.8235994  -0.91117008  0.067655021   -1.8235994   0.91242937   507524 
  367000    1.0039505   -1.8246637   -1.8246637  -0.91121674  0.065337797   -1.8246637   0.91344692   507524 
  368000    1.0033568   -1.8238376   -1.8238376  -0.91093095  0.066761741   -1.8238376   0.91290669   507524 
  369000    1.0056328   -1.8261895   -1.8261895  -0.91121202  0.063052703   -1.8261895   0.91497751   507524 
  370000    1.0040397   -1.8249728   -1.8249728  -0.91144473  0.066264536   -1.8249728   0.91352808   507524 
  371000    1.0011663   -1.8218368   -1.8218368  -0.91092304  0.072320563   -1.8218368   0.91091372   507524 
  372000    1.0026302    -1.824143    -1.824143  -0.91189734  0.068671581    -1.824143   0.91224566   507524 
  373000     1.003554   -1.8252856   -1.8252856  -0.91219938   0.06568328   -1.8252856   0.91308618   507524 
  374000    1.0050933   -1.8262949   -1.8262949  -0.91180824  0.069511183   -1.8262949   0.91448667   507524 
  375000    1.0039713   -1.8242524   -1.8242524  -0.91078657  0.068353601   -1.8242524   0.91346584   507524 
  376000    1.0043124   -1.8245452   -1.8245452  -0.91076898  0.070543183   -1.8245452   0.91377623   507524 
  377000    1.0020187   -1.8231133   -1.8231133  -0.91142405  0.077901492   -1.8231133   0.91168929   507524 
  378000     1.001528   -1.8234602   -1.8234602  -0.91221739   0.06517329   -1.8234602   0.91124279   507524 
  379000    1.0016074   -1.8240894   -1.8240894  -0.91277443  0.068799177   -1.8240894   0.91131501   507524 
  380000    1.0033167   -1.8264372   -1.8264372  -0.91356695  0.069979212   -1.8264372   0.91287024   507524 
  381000    1.0021028   -1.8238613   -1.8238613  -0.91209559  0.067876853   -1.8238613   0.91176576   507524 
  382000    1.0032591   -1.8254622   -1.8254622  -0.91264429  0.070167962   -1.8254622   0.91281786   507524 
  383000    1.0024109   -1.8247199   -1.8247199  -0.91267379  0.073080974   -1.8247199   0.91204606   507524 
  384000    1.0053874   -1.8280717   -1.8280717  -0.91331746  0.070888156   -1.8280717   0.91475427   507524 
  385000    1.0010002   -1.8229266   -1.8229266   -0.9121641  0.075313656   -1.8229266   0.91076254   507524 
  386000    1.0019536   -1.8243933   -1.8243933  -0.91276329   0.06649736   -1.8243933   0.91162999   507524 
  387000    1.0017386   -1.8246841   -1.8246841  -0.91324965  0.067559963   -1.8246841   0.91143444   507524 
  388000    1.0011872   -1.8245846   -1.8245846  -0.91365186  0.070337788   -1.8245846   0.91093273   507524 
  389000    1.0034358   -1.8262529   -1.8262529  -0.91327437  0.075287073   -1.8262529   0.91297858   507524 
  390000    1.0015755   -1.8256409   -1.8256409  -0.91435482  0.072110734   -1.8256409   0.91128606   507524 
  391000    1.0011224   -1.8248267   -1.8248267  -0.91395298  0.070572362   -1.8248267   0.91087376   507524 
  392000    1.0043085   -1.8275387   -1.8275387  -0.91376604   0.06664001   -1.8275387   0.91377266   507524 
  393000    1.0027084   -1.8255441   -1.8255441  -0.91322727  0.066747888   -1.8255441   0.91231682   507524 
  394000    1.0034296   -1.8258365   -1.8258365   -0.9128635  0.071383932   -1.8258365   0.91297298   507524 
  395000    1.0037249    -1.825536    -1.825536  -0.91229437  0.071631706    -1.825536   0.91324165   507524 
  396000    1.0022886    -1.824977    -1.824977  -0.91304222  0.069172984    -1.824977    0.9119348   507524 
  397000    1.0022397   -1.8249371   -1.8249371  -0.91304673  0.069430438   -1.8249371   0.91189034   507524 
  398000    1.0032304   -1.8254316   -1.8254316  -0.91263986  0.071399017   -1.8254316   0.91279172   507524 
  399000    1.0016958   -1.8245871   -1.8245871  -0.91319156  0.070974013   -1.8245871    0.9113955   507524 
  400000    1.0000878   -1.8230603   -1.8230603   -0.9131279  0.070636927   -1.8230603    0.9099324   507524 
  401000    1.0018911   -1.8243726   -1.8243726  -0.91279946   0.07126291   -1.8243726   0.91157313   507524 
  402000    1.0023549   -1.8254554   -1.8254554   -0.9134602  0.074684559   -1.8254554   0.91199519   507524 
  403000    1.0052413   -1.8285704   -1.8285704  -0.91394903  0.069283801   -1.8285704   0.91462135   507524 
  404000    1.0026792   -1.8265747   -1.8265747  -0.91428448    0.0732197   -1.8265747   0.91229024   507524 
  405000    1.0028036   -1.8261199   -1.8261199  -0.91371654  0.068428429   -1.8261199    0.9124034   507524 
  406000     1.003453   -1.8271576   -1.8271576  -0.91416328   0.06315843   -1.8271576    0.9129943   507524 
  407000    1.0021373   -1.8251988   -1.8251988  -0.91340168  0.074200761   -1.8251988   0.91179713   507524 
  408000    1.0037327   -1.8273292   -1.8273292   -0.9140804  0.071075494   -1.8273292   0.91324877   507524 
  409000    1.0030579   -1.8277716   -1.8277716  -0.91513688  0.069970343   -1.8277716   0.91263474   507524 
  410000    1.0044433   -1.8291849   -1.8291849  -0.91528964  0.072302001   -1.8291849   0.91389526   507524 
  411000     1.002423   -1.8267743   -1.8267743  -0.91471716  0.068633143   -1.8267743   0.91205715   507524 
  412000    1.0030594   -1.8270994   -1.8270994  -0.91446332  0.067018161   -1.8270994    0.9126361   507524 
  413000    1.0028652   -1.8265656   -1.8265656  -0.91410612  0.067774144   -1.8265656   0.91245947   507524 
  414000    1.0018499   -1.8255938   -1.8255938  -0.91405807  0.068584846   -1.8255938   0.91153569   507524 
  415000    1.0023128   -1.8258196   -1.8258196  -0.91386272  0.069785641   -1.8258196   0.91195688   507524 
  416000    1.0021286   -1.8243329   -1.8243329  -0.91254361  0.065547127   -1.8243329   0.91178925   507524 
  417000    1.0014361   -1.8242048   -1.8242048  -0.91304563  0.070486247   -1.8242048   0.91115919   507524 
  418000    1.0036037   -1.8258936   -1.8258936  -0.91276225  0.068239504   -1.8258936   0.91313139   507524 
  419000    1.0034806   -1.8270874   -1.8270874  -0.91406809  0.073196589   -1.8270874   0.91301934   507524 
  420000    1.0047616   -1.8275873   -1.8275873  -0.91340245  0.067933378   -1.8275873   0.91418486   507524 
  421000    1.0019423   -1.8249631   -1.8249631  -0.91334335  0.070609933   -1.8249631   0.91161973   507524 
  422000    1.0028788   -1.8255504   -1.8255504   -0.9130786  0.067433081   -1.8255504    0.9124718   507524 
  423000    1.0061077   -1.8279921   -1.8279921  -0.91258245   0.06945947   -1.8279921   0.91540968   507524 
  424000    1.0033509   -1.8252734   -1.8252734  -0.91237203  0.070144274   -1.8252734   0.91290134   507524 
  425000    1.0042501   -1.8243926   -1.8243926  -0.91067314  0.071852202   -1.8243926   0.91371947   507524 
  426000    1.0057718   -1.8248965   -1.8248965   -0.9097925  0.067728351   -1.8248965     0.915104   507524 
  427000    1.0043416   -1.8248026   -1.8248026  -0.91099982  0.067351213   -1.8248026   0.91380275   507524 
  428000    1.0032254   -1.8241318   -1.8241318  -0.91134466  0.073466331   -1.8241318   0.91278717   507524 
  429000    1.0050129   -1.8257875   -1.8257875  -0.91137402  0.064318301   -1.8257875   0.91441352   507524 
  430000    1.0043311   -1.8261649   -1.8261649  -0.91237167  0.073305282   -1.8261649   0.91379324   507524 
  431000    1.0045218   -1.8251854   -1.8251854  -0.91121866  0.076309846   -1.8251854   0.91396672   507524 
  432000    1.0027603     -1.82347     -1.82347  -0.91110598  0.073272438     -1.82347   0.91236399   507524 
  433000    1.0042359   -1.8242141   -1.8242141  -0.91050752  0.065255471   -1.8242141   0.91370659   507524 
  434000    1.0012729   -1.8222724   -1.8222724  -0.91126167  0.068608774   -1.8222724   0.91101072   507524 
  435000    1.0014137   -1.8230349   -1.8230349  -0.91189605  0.064266813   -1.8230349   0.91113881   507524 
  436000    1.0009123     -1.82234     -1.82234  -0.91165741  0.063294189     -1.82234   0.91068257   507524 
  437000    1.0000115   -1.8220864   -1.8220864  -0.91222334  0.061035836   -1.8220864   0.90986304   507524 
  438000    1.0014465   -1.8229056   -1.8229056  -0.91173702  0.074659382   -1.8229056   0.91116862   507524 
  439000    1.0015905   -1.8227321   -1.8227321  -0.91143244  0.065718107   -1.8227321   0.91129969   507524 
  440000    1.0040856   -1.8245689   -1.8245689  -0.91099912  0.061982687   -1.8245689   0.91356982   507524 
  441000    1.0020988   -1.8232658   -1.8232658  -0.91150363  0.066782409   -1.8232658   0.91176212   507524 
  442000    1.0044228   -1.8240713   -1.8240713  -0.91019462  0.073893851   -1.8240713   0.91387664   507524 
  443000    1.0024039    -1.822499    -1.822499  -0.91045925  0.069042614    -1.822499   0.91203973   507524 
  444000    1.0039516   -1.8229394   -1.8229394  -0.90949153  0.067401199   -1.8229394    0.9134479   507524 
  445000    1.0029857   -1.8222302   -1.8222302  -0.90966114  0.071786054   -1.8222302    0.9125691   507524 
  446000    1.0051905   -1.8235045   -1.8235045  -0.90892937  0.067077121   -1.8235045   0.91457513   507524 
  447000    1.0040322   -1.8226579   -1.8226579  -0.90913661  0.073870772   -1.8226579   0.91352126   507524 
  448000    1.0027539   -1.8219406   -1.8219406  -0.90958241  0.067361442   -1.8219406   0.91235819   507524 
  449000    1.0042107   -1.8249385   -1.8249385  -0.91125485  0.069262717   -1.8249385   0.91368364   507524 
  450000     1.005764   -1.8255444   -1.8255444  -0.91044745  0.078984424   -1.8255444   0.91509697   507524 
  451000    1.0048373   -1.8251872   -1.8251872  -0.91093346  0.066712735   -1.8251872   0.91425378   507524 
  452000    1.0016229   -1.8242525   -1.8242525  -0.91292334  0.067767042   -1.8242525   0.91132913   507524 
  453000    1.0024878   -1.8254387   -1.8254387  -0.91332266    0.0668005   -1.8254387   0.91211608   507524 
  454000     1.001435   -1.8250596   -1.8250596  -0.91390147  0.064197202   -1.8250596   0.91115813   507524 
  455000    1.0032104    -1.825614    -1.825614  -0.91284047  0.071343238    -1.825614   0.91277357   507524 
  456000    1.0030882   -1.8249459   -1.8249459  -0.91228356  0.064785218   -1.8249459   0.91266235   507524 
  457000    1.0040762    -1.825758    -1.825758  -0.91219673  0.070390268    -1.825758    0.9135613   507524 
  458000    1.0045476   -1.8254537   -1.8254537  -0.91146344  0.071062786   -1.8254537   0.91399022   507524 
  459000    1.0042295   -1.8251932   -1.8251932  -0.91149238  0.073127994   -1.8251932   0.91370078   507524 
  460000    1.0048803    -1.825789    -1.825789  -0.91149613   0.07556877    -1.825789   0.91429289   507524 
  461000    1.0040772    -1.824706    -1.824706  -0.91114382  0.076854761    -1.824706   0.91356222   507524 
  462000    1.0046119   -1.8243225   -1.8243225  -0.91027374  0.068660868   -1.8243225   0.91404872   507524 
  463000    1.0029276   -1.8236829   -1.8236829  -0.91116665  0.069842915   -1.8236829   0.91251624   507524 
  464000    1.0027752   -1.8236306   -1.8236306  -0.91125309  0.068868743   -1.8236306   0.91237756   507524 
  465000    1.0030225   -1.8243036   -1.8243036  -0.91170099  0.056955888   -1.8243036   0.91260261   507524 
  466000    1.0038572   -1.8245741   -1.8245741  -0.91121214  0.072628411   -1.8245741   0.91336199   507524 
  467000    1.0021821   -1.8227537   -1.8227537  -0.91091577  0.069055401   -1.8227537   0.91183793   507524 
  468000    1.0021161   -1.8219779   -1.8219779  -0.91019999  0.070651804   -1.8219779   0.91177787   507524 
  469000    1.0006054   -1.8204875   -1.8204875  -0.91008408  0.069088896   -1.8204875   0.91040337   507524 
  470000    1.0020437   -1.8232869   -1.8232869  -0.91157492  0.070446736   -1.8232869   0.91171201   507524 
  471000    1.0022809   -1.8236951   -1.8236951  -0.91176728   0.06944241   -1.8236951   0.91192781   507524 
  472000    1.0021307   -1.8239318   -1.8239318  -0.91214061  0.068535331   -1.8239318   0.91179118   507524 
  473000    1.0009763   -1.8226963   -1.8226963  -0.91195541  0.065254425   -1.8226963   0.91074087   507524 
  474000    1.0010573   -1.8221779   -1.8221779  -0.91136339  0.070491178   -1.8221779   0.91081454   507524 
  475000    1.0007279   -1.8218074   -1.8218074   -0.9112926  0.071066307   -1.8218074   0.91051484   507524 
  476000    1.0017782   -1.8215488   -1.8215488  -0.91007835  0.069381915   -1.8215488   0.91147048   507524 
  477000    1.0025537   -1.8229985   -1.8229985  -0.91082248  0.068534076   -1.8229985   0.91217599   507524 
  478000    1.0014356   -1.8229264   -1.8229264  -0.91176762  0.070155016   -1.8229264   0.91115874   507524 
  479000    1.0026367   -1.8234426   -1.8234426  -0.91119102  0.062429372   -1.8234426   0.91225158   507524 
  480000    1.0035266   -1.8238357   -1.8238357  -0.91077451  0.068787908   -1.8238357   0.91306122   507524 
  481000    1.0034652    -1.822864    -1.822864  -0.90985869  0.077409429    -1.822864   0.91300532   507524 
  482000    1.0043267   -1.8242202   -1.8242202  -0.91043094   0.06453072   -1.8242202   0.91378923   507524 
  483000    1.0029904   -1.8227684   -1.8227684  -0.91019511  0.067903638   -1.8227684   0.91257334   507524 
  484000    1.0023306   -1.8219237   -1.8219237  -0.90995063  0.076952795   -1.8219237   0.91197302   507524 
  485000     1.004243   -1.8231885   -1.8231885   -0.9094754  0.069197593   -1.8231885   0.91371307   507524 
  486000    1.0027086    -1.822043    -1.822043  -0.90972603  0.068485004    -1.822043   0.91231701   507524 
  487000    1.0035311    -1.823343    -1.823343   -0.9102777  0.069752149    -1.823343    0.9130653   507524 
  488000    1.0032038   -1.8235782   -1.8235782  -0.91081068  0.062897608   -1.8235782   0.91276755   507524 
  489000    1.0026091   -1.8231931   -1.8231931  -0.91096666   0.07640041   -1.8231931   0.91222642   507524 
  490000    1.0019196   -1.8233066   -1.8233066  -0.91170749  0.064798662   -1.8233066   0.91159914   507524 
  491000    1.0030785   -1.8239006   -1.8239006  -0.91124704  0.070376919   -1.8239006   0.91265356   507524 
  492000    1.0020625   -1.8245071   -1.8245071  -0.91277798  0.066180299   -1.8245071   0.91172914   507524 
  493000    1.0026424   -1.8253863   -1.8253863  -0.91312948  0.060823769   -1.8253863   0.91225677   507524 
  494000    1.0028554   -1.8245152   -1.8245152  -0.91206469  0.067860654   -1.8245152   0.91245055   507524 
  495000    1.0011658   -1.8225837   -1.8225837  -0.91167041  0.067515161   -1.8225837   0.91091328   507524 
  496000    1.0029884   -1.8241538   -1.8241538  -0.91158229  0.076864826   -1.8241538   0.91257151   507524 
  497000    1.0016763   -1.8231133   -1.8231133  -0.91173553  0.066838468   -1.8231133   0.91137775   507524 
  498000      1.00255   -1.8237948   -1.8237948  -0.91162216  0.072847848   -1.8237948   0.91217263   507524 
  499000    1.0032835       -1.825       -1.825  -0.91215998  0.064876381       -1.825   0.91284007   507524 
  500000    1.0032592    -1.824564    -1.824564  -0.91174607  0.070130094    -1.824564   0.91281795   507524 
  501000    1.0028997   -1.8252037   -1.8252037  -0.91271285   0.07323051   -1.8252037   0.91249084   507524 
  502000     1.005693   -1.8277184   -1.8277184  -0.91268606  0.066278633   -1.8277184   0.91503235   507524 
  503000    1.0045162   -1.8267183   -1.8267183  -0.91275669  0.065218307   -1.8267183   0.91396161   507524 
  504000    1.0019952    -1.824759    -1.824759  -0.91309106   0.06926092    -1.824759   0.91166791   507524 
  505000    1.0014345   -1.8238489   -1.8238489   -0.9126912  0.067998776   -1.8238489   0.91115775   507524 
  506000    1.0024015   -1.8247767   -1.8247767  -0.91273916  0.071476346   -1.8247767   0.91203757   507524 
  507000     1.003894   -1.8256213   -1.8256213   -0.9122258  0.073024543   -1.8256213   0.91339547   507524 
  508000    1.0054934   -1.8262508   -1.8262508  -0.91140002  0.069326481   -1.8262508   0.91485073   507524 
  509000    1.0036735   -1.8258831   -1.8258831  -0.91268818  0.072742648   -1.8258831   0.91319488   507524 
  510000    1.0027115   -1.8251844   -1.8251844  -0.91286475  0.072847611   -1.8251844    0.9123196   507524 
  511000      1.00406   -1.8261287   -1.8261287   -0.9125822   0.07523836   -1.8261287   0.91354651   507524 
  512000    1.0052699   -1.8277951   -1.8277951   -0.9131478  0.068117019   -1.8277951   0.91464734   507524 
  513000    1.0026207   -1.8272568   -1.8272568  -0.91501982  0.068241641   -1.8272568   0.91223701   507524 
  514000    1.0057999   -1.8300899   -1.8300899  -0.91496029  0.065886048   -1.8300899   0.91512962   507524 
  515000    1.0028889   -1.8268467   -1.8268467   -0.9143657  0.069887829   -1.8268467   0.91248098   507524 
  516000    1.0039212   -1.8267205   -1.8267205  -0.91330029  0.067423818   -1.8267205   0.91342021   507524 
  517000    1.0046112   -1.8272524   -1.8272524  -0.91320438  0.078339988   -1.8272524   0.91404804   507524 
  518000    1.0044567   -1.8265757   -1.8265757  -0.91266819  0.068167698   -1.8265757   0.91390748   507524 
  519000    1.0044289   -1.8264093   -1.8264093  -0.91252707  0.070628387   -1.8264093    0.9138822   507524 
  520000    1.0032658   -1.8249976   -1.8249976  -0.91217358  0.072580755   -1.8249976   0.91282397   507524 
  521000    1.0025128   -1.8260912   -1.8260912  -0.91395246  0.077205465   -1.8260912   0.91213878   507524 
  522000    1.0013092   -1.8250826   -1.8250826  -0.91403886  0.071206496   -1.8250826    0.9110437   507524 
  523000    1.0024409   -1.8259843   -1.8259843   -0.9139109  0.075083142   -1.8259843   0.91207338   507524 
  524000     1.003578   -1.8269477   -1.8269477  -0.91383972    0.0669079   -1.8269477   0.91310802   507524 
  525000    1.0016634   -1.8250568   -1.8250568  -0.91369082  0.069672148   -1.8250568   0.91136603   507524 
  526000    1.0032595   -1.8257971   -1.8257971   -0.9129789  0.069121243   -1.8257971   0.91281823   507524 
  527000    1.0016514   -1.8248769   -1.8248769  -0.91352174  0.065917711   -1.8248769   0.91135511   507524 
  528000    1.0028273   -1.8257711   -1.8257711  -0.91334619   0.07380138   -1.8257711   0.91242496   507524 
  529000    1.0009803   -1.8245101   -1.8245101  -0.91376566  0.070339307   -1.8245101   0.91074445   507524 
  530000    1.0014393   -1.8242448   -1.8242448  -0.91308277  0.070655719   -1.8242448   0.91116205   507524 
  531000    1.0015365   -1.8254143   -1.8254143  -0.91416374   0.07180833   -1.8254143   0.91125055   507524 
  532000    1.0006847   -1.8249918   -1.8249918  -0.91451625  0.070954063   -1.8249918   0.91047556   507524 
  533000     1.001668   -1.8252201   -1.8252201  -0.91384993   0.06304878   -1.8252201    0.9113702   507524 
  534000    1.0016342   -1.8245438   -1.8245438  -0.91320437  0.074683816   -1.8245438   0.91133944   507524 
  535000    1.0041983   -1.8274182   -1.8274182  -0.91374583  0.076324398   -1.8274182   0.91367233   507524 
  536000    1.0026636   -1.8247085   -1.8247085  -0.91243249  0.072240891   -1.8247085   0.91227605   507524 
  537000     1.003092   -1.8241483   -1.8241483  -0.91148252  0.069385573   -1.8241483   0.91266577   507524 
  538000    1.0024002   -1.8235169   -1.8235169  -0.91148058    0.0644219   -1.8235169   0.91203633   507524 
  539000    1.0008262   -1.8227865   -1.8227865  -0.91218222  0.067289848   -1.8227865   0.91060424   507524 
  540000    1.0015722    -1.822611    -1.822611    -0.911328   0.06933839    -1.822611   0.91128298   507524 
  541000    1.0003152   -1.8220279   -1.8220279  -0.91188856  0.062546566   -1.8220279   0.91013936   507524 
  542000    1.0005025   -1.8226831   -1.8226831  -0.91237341  0.066794239   -1.8226831    0.9103097   507524 
  543000    1.0004192   -1.8227691   -1.8227691  -0.91253522  0.063315029   -1.8227691   0.91023391   507524 
  544000    1.0010719   -1.8233585   -1.8233585  -0.91253063    0.0665399   -1.8233585   0.91082785   507524 
  545000    1.0030417   -1.8234227   -1.8234227  -0.91080271  0.065941387   -1.8234227   0.91262001   507524 
  546000    1.0009702   -1.8222831   -1.8222831  -0.91154782  0.072461382   -1.8222831   0.91073529   507524 
  547000    1.0027359    -1.822978    -1.822978  -0.91063615  0.065500135    -1.822978   0.91234182   507524 
  548000    1.0040335   -1.8235542   -1.8235542  -0.91003184  0.068202162   -1.8235542   0.91352241   507524 
  549000    1.0028412   -1.8227833   -1.8227833  -0.91034573  0.069224936   -1.8227833   0.91243757   507524 
  550000    1.0005014   -1.8215524   -1.8215524  -0.91124365  0.070560054   -1.8215524    0.9103087   507524 
  551000    1.0044611   -1.8249621   -1.8249621  -0.91105063  0.061969869   -1.8249621   0.91391147   507524 
  552000    1.0033381   -1.8229935   -1.8229935  -0.91010377  0.068860879   -1.8229935   0.91288976   507524 
  553000     1.003072   -1.8222513   -1.8222513   -0.9096036  0.072539803   -1.8222513   0.91264765   507524 
  554000    1.0019527   -1.8214958   -1.8214958  -0.90986665  0.066984117   -1.8214958   0.91162919   507524 
  555000    1.0033127   -1.8226497   -1.8226497  -0.90978316  0.061499048   -1.8226497   0.91286657   507524 
  556000     1.003717   -1.8231647   -1.8231647  -0.90993022  0.062650667   -1.8231647   0.91323446   507524 
  557000    1.0038636   -1.8233619   -1.8233619  -0.90999405  0.069256297   -1.8233619   0.91336784   507524 
  558000    1.0067321    -1.825518    -1.825518  -0.90954025  0.070738108    -1.825518   0.91597775   507524 
  559000    1.0043634     -1.82402     -1.82402  -0.91019749  0.072898371     -1.82402   0.91382255   507524 
  560000    1.0037232   -1.8236808   -1.8236808   -0.9104407  0.075567998   -1.8236808   0.91324008   507524 
  561000    1.0035183   -1.8224801   -1.8224801  -0.90942642  0.072089345   -1.8224801   0.91305364   507524 
  562000    1.0030948   -1.8222376   -1.8222376  -0.90956919  0.070850563   -1.8222376   0.91266836   507524 
  563000    1.0039105   -1.8228779   -1.8228779  -0.90946735   0.06942616   -1.8228779   0.91341052   507524 
  564000    1.0024995   -1.8218897   -1.8218897  -0.90976296  0.064540768   -1.8218897   0.91212671   507524 
  565000    1.0018642    -1.821684    -1.821684   -0.9101353  0.067603932    -1.821684   0.91154868   507524 
  566000    1.0016183   -1.8228645   -1.8228645  -0.91153951  0.065787698   -1.8228645   0.91132495   507524 
  567000    1.0020657   -1.8223766   -1.8223766  -0.91064463  0.073835067   -1.8223766   0.91173198   507524 
  568000    1.0029065   -1.8232918   -1.8232918  -0.91079476  0.076869861   -1.8232918   0.91249702   507524 
  569000    1.0042653   -1.8249186   -1.8249186  -0.91118532  0.067048875   -1.8249186   0.91373332   507524 
  570000     1.002025   -1.8224072   -1.8224072  -0.91071221  0.071757918   -1.8224072   0.91169499   507524 
  571000    1.0027147   -1.8234467   -1.8234467  -0.91112416  0.064219118   -1.8234467   0.91232253   507524 
  572000    1.0038682   -1.8251368   -1.8251368  -0.91176474  0.067009906   -1.8251368   0.91337202   507524 
  573000    1.0020214   -1.8236633   -1.8236633  -0.91197153  0.067734878   -1.8236633   0.91169174   507524 
  574000    1.0009635   -1.8230039   -1.8230039  -0.91227467  0.071039605   -1.8230039   0.91072919   507524 
  575000    1.0019564   -1.8239127   -1.8239127  -0.91228016  0.065274369   -1.8239127   0.91163257   507524 
  576000    1.0035122   -1.8240308   -1.8240308  -0.91098268  0.068986815   -1.8240308   0.91304809   507524 
  577000    1.0004195   -1.8225802   -1.8225802  -0.91234603  0.067888961   -1.8225802   0.91023418   507524 
  578000    1.0005159   -1.8211072   -1.8211072  -0.91078527  0.061983685   -1.8211072   0.91032191   507524 
  579000    1.0039828   -1.8229986   -1.8229986  -0.90952229  0.065611001   -1.8229986   0.91347627   507524 
  580000    1.0034335   -1.8222787   -1.8222787  -0.90930223   0.07133182   -1.8222787    0.9129765   507524 
  581000    1.0031985    -1.823059    -1.823059  -0.91029637  0.061116737    -1.823059   0.91276268   507524 
  582000    1.0033222   -1.8229385   -1.8229385  -0.91006329  0.073205921   -1.8229385   0.91287526   507524 
  583000    1.0027442   -1.8221378   -1.8221378   -0.9097885  0.074409965   -1.8221378   0.91234933   507524 
  584000    1.0013102   -1.8211678   -1.8211678  -0.91012308  0.070196369   -1.8211678   0.91104467   507524 
  585000    1.0042735   -1.8235504   -1.8235504  -0.90980963  0.072706563   -1.8235504   0.91374076   507524 
  586000    1.0028221   -1.8225825   -1.8225825   -0.9101622  0.066105602   -1.8225825   0.91242025   507524 
  587000    1.0025496   -1.8222958   -1.8222958  -0.91012351  0.072281139   -1.8222958   0.91217233   507524 
  588000    1.0040011   -1.8229737   -1.8229737  -0.90948081  0.071706613   -1.8229737   0.91349292   507524 
  589000    1.0049238   -1.8234679   -1.8234679  -0.90913539  0.071431715   -1.8234679   0.91433247   507524 
  590000    1.0048511   -1.8232914   -1.8232914  -0.90902505  0.066217571   -1.8232914   0.91426636   507524 
  591000     1.006299   -1.8242606   -1.8242606  -0.90867682   0.07430336   -1.8242606   0.91558374   507524 
  592000    1.0046638   -1.8225096   -1.8225096  -0.90841368  0.069707528   -1.8225096   0.91409589   507524 
  593000    1.0052762   -1.8240636   -1.8240636  -0.90941042  0.073864537   -1.8240636   0.91465315   507524 
  594000    1.0060243   -1.8256478   -1.8256478  -0.91031404  0.067735885   -1.8256478   0.91533376   507524 
  595000    1.0040794   -1.8246026   -1.8246026  -0.91103838   0.06847156   -1.8246026   0.91356423   507524 
  596000    1.0036076   -1.8244951   -1.8244951  -0.91136015  0.068127826   -1.8244951   0.91313493   507524 
  597000    1.0019218   -1.8223968   -1.8223968  -0.91079567   0.06960519   -1.8223968   0.91160112   507524 
  598000    1.0021518   -1.8224626   -1.8224626  -0.91065224  0.078405885   -1.8224626   0.91181039   507524 
  599000    1.0046057   -1.8246562   -1.8246562   -0.9106132  0.066501187   -1.8246562   0.91404304   507524 
  600000    1.0049892   -1.8248766   -1.8248766  -0.91048465  0.066874244   -1.8248766   0.91439198   507524 
  601000    1.0037521   -1.8232144   -1.8232144  -0.90994798  0.078711897   -1.8232144    0.9132664   507524 
  602000    1.0041813   -1.8224354   -1.8224354  -0.90877845  0.074855805   -1.8224354   0.91365695   507524 
  603000    1.0025555    -1.821872    -1.821872  -0.90969426  0.068598911    -1.821872    0.9121777   507524 
  604000    1.0042423   -1.8219584   -1.8219584  -0.90824602  0.068605165   -1.8219584   0.91371239   507524 
  605000     1.004319   -1.8226262   -1.8226262  -0.90884401  0.070512174   -1.8226262   0.91378221   507524 
  606000    1.0034888   -1.8219278   -1.8219278  -0.90890095  0.074783794   -1.8219278   0.91302682   507524 
  607000    1.0051693   -1.8231854   -1.8231854  -0.90862954  0.075617999   -1.8231854   0.91455584   507524 
  608000    1.0025879   -1.8214876   -1.8214876  -0.90928052  0.066142682   -1.8214876   0.91220711   507524 
  609000    1.0035919   -1.8226709   -1.8226709  -0.90955032  0.069570489   -1.8226709    0.9131206   507524 
  610000    1.0027924   -1.8215478   -1.8215478  -0.90915466  0.068034303   -1.8215478   0.91239317   507524 
  611000    1.0023841   -1.8213884   -1.8213884   -0.9093667  0.075219124   -1.8213884   0.91202173   507524 
  612000    1.0044002   -1.8232411   -1.8232411  -0.90938507  0.073249132   -1.8232411   0.91385603   507524 
  613000    1.0040762   -1.8223603   -1.8223603  -0.90879903  0.071438156   -1.8223603   0.91356127   507524 
  614000    1.0023512   -1.8210324   -1.8210324  -0.90904055   0.06857816   -1.8210324   0.91199183   507524 
  615000    1.0036065   -1.8223543   -1.8223543  -0.90922033  0.068405149   -1.8223543   0.91313393   507524 
  616000    1.0008652   -1.8195682   -1.8195682  -0.90892846  0.065212421   -1.8195682   0.91063979   507524 
  617000    1.0028771   -1.8217016   -1.8217016  -0.90923134  0.066870974   -1.8217016   0.91247031   507524 
  618000    1.0044273   -1.8221037   -1.8221037  -0.90822298  0.071323553   -1.8221037   0.91388068   507524 
  619000    1.0050438   -1.8216338   -1.8216338  -0.90719212  0.069947285   -1.8216338   0.91444164   507524 
  620000    1.0015808   -1.8189629   -1.8189629  -0.90767208  0.068612458   -1.8189629   0.91129085   507524 
  621000    1.0033152   -1.8204663   -1.8204663  -0.90759743  0.068295923   -1.8204663    0.9128689   507524 
  622000    1.0047746    -1.822023    -1.822023  -0.90782632  0.072009755    -1.822023   0.91419672   507524 
  623000    1.0041928    -1.822033    -1.822033  -0.90836563  0.068566745    -1.822033   0.91366734   507524 
  624000    1.0018077   -1.8204512   -1.8204512  -0.90895392  0.068687664   -1.8204512   0.91149732   507524 
  625000    1.0033058   -1.8221253   -1.8221253  -0.90926498  0.074123875   -1.8221253   0.91286029   507524 
  626000    1.0030502   -1.8215416   -1.8215416  -0.90891388  0.073952464   -1.8215416   0.91262774   507524 
  627000    1.0024658    -1.820065    -1.820065  -0.90796903  0.075189155    -1.820065   0.91209601   507524 
  628000    1.0043356   -1.8215739   -1.8215739  -0.90777661  0.063654131   -1.8215739   0.91379726   507524 
  629000    1.0052344   -1.8227345   -1.8227345  -0.90811942  0.073492743   -1.8227345   0.91461507   507524 
  630000    1.0043109    -1.821687    -1.821687   -0.9079122  0.064577473    -1.821687   0.91377485   507524 
  631000    1.0032161   -1.8205801   -1.8205801  -0.90780135  0.066668016   -1.8205801   0.91277871   507524 
  632000    1.0049277   -1.8228838   -1.8228838  -0.90854785  0.071600609   -1.8228838     0.914336   507524 
  633000    1.0054122   -1.8223698   -1.8223698  -0.90759298  0.064947449   -1.8223698   0.91477681   507524 
  634000    1.0037514   -1.8208036   -1.8208036  -0.90753782  0.073777867   -1.8208036    0.9132658   507524 
  635000    1.0056041   -1.8215616   -1.8215616  -0.90661011  0.064494033   -1.8215616   0.91495148   507524 
  636000    1.0058471   -1.8220289   -1.8220289  -0.90685644  0.072309782   -1.8220289    0.9151725   507524 
  637000    1.0045816   -1.8219638   -1.8219638   -0.9079426  0.067717488   -1.8219638   0.91402116   507524 
  638000    1.0027264   -1.8198927   -1.8198927   -0.9075595  0.068233814   -1.8198927   0.91233319   507524 
  639000    1.0042205   -1.8215066   -1.8215066  -0.90781399  0.075752066   -1.8215066   0.91369258   507524 
  640000    1.0045539   -1.8220451   -1.8220451  -0.90804911  0.067660876   -1.8220451   0.91399595   507524 
  641000    1.0040544   -1.8218903   -1.8218903  -0.90834891  0.069086208   -1.8218903   0.91354143   507524 
  642000    1.0024439   -1.8204351   -1.8204351  -0.90835895  0.073326991   -1.8204351   0.91207617   507524 
  643000    1.0011407    -1.820156    -1.820156  -0.90926563  0.065403926    -1.820156   0.91089039   507524 
  644000    1.0012585   -1.8194193   -1.8194193  -0.90842172  0.072371839   -1.8194193   0.91099762   507524 
[...]
 6216000    1.0101329   -1.8299487   -1.8299487  -0.91087664  0.076933149   -1.8299487   0.91907202   507524 
 6217000    1.0091131   -1.8292705   -1.8292705  -0.91112633  0.071106704   -1.8292705   0.91814414   507524 
 6218000    1.0101254   -1.8304244   -1.8304244  -0.91135929   0.07411737   -1.8304244   0.91906514   507524 
 6219000    1.0098703   -1.8320042   -1.8320042  -0.91317116  0.067418978   -1.8320042   0.91883303   507524 
 6220000    1.0092817   -1.8312742   -1.8312742  -0.91297665  0.070361852   -1.8312742   0.91829754   507524 
 6221000    1.0106039   -1.8312378   -1.8312378  -0.91173724   0.07064937   -1.8312378   0.91950052   507524 
 6222000    1.0099983   -1.8316221   -1.8316221  -0.91267259  0.068718476   -1.8316221   0.91894953   507524 
 6223000       1.0097   -1.8318228   -1.8318228  -0.91314469  0.071433934   -1.8318228   0.91867815   507524 
 6224000    1.0083431   -1.8300362   -1.8300362  -0.91259274  0.072976888   -1.8300362   0.91744349   507524 
 6225000    1.0077298   -1.8296266   -1.8296266  -0.91274107  0.072431734   -1.8296266   0.91688556   507524 
 6226000    1.0068899   -1.8296897   -1.8296897   -0.9135684  0.069118233   -1.8296897   0.91612132   507524 
 6227000    1.0083628    -1.831107    -1.831107  -0.91364558  0.068332099    -1.831107   0.91746141   507524 
 6228000    1.0084933   -1.8313086   -1.8313086  -0.91372839  0.070493565   -1.8313086   0.91758017   507524 
 6229000    1.0083185   -1.8314531   -1.8314531  -0.91403193  0.072599821   -1.8314531   0.91742113   507524 
 6230000    1.0098015   -1.8324404   -1.8324404  -0.91366985  0.065945415   -1.8324404    0.9187705   507524 
 6231000     1.010756   -1.8321577   -1.8321577  -0.91251873  0.070165146   -1.8321577   0.91963893   507524 
 6232000     1.009878   -1.8306353   -1.8306353  -0.91179523   0.07626487   -1.8306353   0.91884009   507524 
 6233000     1.012514   -1.8334414   -1.8334414  -0.91220298  0.068385669   -1.8334414   0.92123841   507524 
 6234000    1.0102644   -1.8315488   -1.8315488  -0.91235712  0.077097394   -1.8315488   0.91919165   507524 
 6235000    1.0083163   -1.8296859   -1.8296859  -0.91226677  0.077338834   -1.8296859   0.91741917   507524 
 6236000    1.0096336   -1.8310174   -1.8310174  -0.91239973  0.071723631   -1.8310174   0.91861767   507524 
 6237000    1.0084062   -1.8292124   -1.8292124  -0.91171145  0.070160913   -1.8292124   0.91750092   507524 
 6238000    1.0103679   -1.8311141   -1.8311141  -0.91182835  0.074891071   -1.8311141   0.91928578   507524 
 6239000    1.0080177   -1.8293768   -1.8293768  -0.91222935  0.071620076   -1.8293768   0.91714748   507524 
 6240000    1.0093805   -1.8315253   -1.8315253  -0.91313794  0.072590666   -1.8315253   0.91838737   507524 
 6241000    1.0090602   -1.8294844   -1.8294844  -0.91138836  0.077197894   -1.8294844   0.91809601   507524 
 6242000    1.0095549    -1.830032    -1.830032  -0.91148598  0.070726108    -1.830032   0.91854607   507524 
 6243000     1.009993   -1.8311223   -1.8311223  -0.91217759   0.07365214   -1.8311223   0.91894468   507524 
 6244000    1.0096272   -1.8312635   -1.8312635  -0.91265159  0.068608344   -1.8312635   0.91861189   507524 
 6245000    1.0097327   -1.8316696   -1.8316696  -0.91296177  0.067990891   -1.8316696   0.91870786   507524 
 6246000    1.0091251   -1.8306552   -1.8306552  -0.91250019  0.071137671   -1.8306552   0.91815504   507524 
 6247000    1.0107547   -1.8307242   -1.8307242  -0.91108648  0.067325556   -1.8307242   0.91963771   507524 
 6248000    1.0097963   -1.8303721   -1.8303721  -0.91160638  0.072614663   -1.8303721   0.91876575   507524 
 6249000    1.0085415   -1.8296111   -1.8296111  -0.91198706  0.068199999   -1.8296111   0.91762405   507524 
 6250000    1.0063944   -1.8287696   -1.8287696  -0.91309903  0.067330264   -1.8287696   0.91567054   507524 
 6251000    1.0070259   -1.8294406   -1.8294406  -0.91319548  0.070929746   -1.8294406   0.91624511   507524 
 6252000     1.008852   -1.8307856   -1.8307856  -0.91287908  0.070287149   -1.8307856   0.91790657   507524 
 6253000    1.0083829   -1.8298237   -1.8298237  -0.91234391  0.073062228   -1.8298237   0.91747977   507524 
 6254000    1.0069732   -1.8287071   -1.8287071  -0.91250991  0.070160274   -1.8287071   0.91619715   507524 
 6255000    1.0080441   -1.8305402   -1.8305402  -0.91336877   0.06796875   -1.8305402   0.91717145   507524 
 6256000    1.0088253   -1.8321432   -1.8321432  -0.91426095  0.070701913   -1.8321432   0.91788226   507524 
 6257000    1.0085244   -1.8319129   -1.8319129  -0.91430451  0.068357799   -1.8319129   0.91760844   507524 
 6258000    1.0067055   -1.8298851   -1.8298851  -0.91393156  0.065001374   -1.8298851   0.91595359   507524 
 6259000    1.0078036   -1.8307737   -1.8307737  -0.91382097  0.067219233   -1.8307737   0.91695271   507524 
 6260000    1.0082046   -1.8314233   -1.8314233  -0.91410588  0.069050715   -1.8314233   0.91731747   507524 
 6261000    1.0098985   -1.8332232   -1.8332232  -0.91436446  0.068970958   -1.8332232   0.91885875   507524 
 6262000    1.0085143   -1.8322038   -1.8322038  -0.91460448  0.070067897   -1.8322038    0.9175993   507524 
 6263000    1.0080754   -1.8325605   -1.8325605  -0.91536056  0.069317023   -1.8325605   0.91719998   507524 
 6264000      1.00619   -1.8307238   -1.8307238  -0.91523923  0.072966367   -1.8307238   0.91548454   507524 
 6265000    1.0091703   -1.8329171   -1.8329171  -0.91472103  0.069137294   -1.8329171   0.91819612   507524 
 6266000    1.0078101   -1.8319738   -1.8319738  -0.91501519  0.072213484   -1.8319738   0.91695861   507524 
 6267000    1.0084954   -1.8327473   -1.8327473  -0.91516518   0.06892544   -1.8327473   0.91758211   507524 
 6268000    1.0107597   -1.8349295   -1.8349295  -0.91528729  0.065421324   -1.8349295   0.91964224   507524 
 6269000    1.0087935   -1.8332115   -1.8332115  -0.91535822  0.069885465   -1.8332115   0.91785333   507524 
 6270000    1.0102112   -1.8346779   -1.8346779  -0.91553466  0.080771234   -1.8346779   0.91914326   507524 
 6271000    1.0091389   -1.8341781   -1.8341781  -0.91601052   0.07568558   -1.8341781   0.91816758   507524 
 6272000    1.0084687   -1.8333685   -1.8333685  -0.91581066  0.074158015   -1.8333685   0.91755783   507524 
 6273000    1.0057562   -1.8309788   -1.8309788  -0.91588898  0.071952299   -1.8309788   0.91508981   507524 
 6274000    1.0068274   -1.8323648   -1.8323648  -0.91630042  0.069552226   -1.8323648   0.91606443   507524 
 6275000    1.0086283   -1.8337336   -1.8337336  -0.91603051  0.067208856   -1.8337336   0.91770304   507524 
 6276000    1.0090057    -1.832472    -1.832472  -0.91442566  0.073106246    -1.832472   0.91804636   507524 
 6277000    1.0104745   -1.8350508   -1.8350508  -0.91566803  0.066447736   -1.8350508   0.91938276   507524 
 6278000    1.0111857   -1.8353371   -1.8353371  -0.91530719   0.06900802   -1.8353371   0.92002987   507524 
 6279000    1.0084907   -1.8327354   -1.8327354  -0.91515757  0.071766924   -1.8327354   0.91757785   507524 
 6280000    1.0067765   -1.8316675   -1.8316675  -0.91564934  0.069118497   -1.8316675   0.91601815   507524 
 6281000    1.0075326     -1.83275     -1.83275  -0.91604393  0.072012008     -1.83275   0.91670607   507524 
 6282000    1.0063763   -1.8316335   -1.8316335  -0.91597949  0.071209282   -1.8316335     0.915654   507524 
 6283000     1.008829    -1.834206    -1.834206  -0.91632034  0.073051353    -1.834206   0.91788562   507524 
 6284000    1.0105227   -1.8346748   -1.8346748  -0.91524814  0.069778378   -1.8346748   0.91942668   507524 
 6285000    1.0081136   -1.8333273   -1.8333273  -0.91609259  0.071837667   -1.8333273    0.9172347   507524 
 6286000    1.0080299   -1.8331926   -1.8331926  -0.91603412  0.067828229   -1.8331926   0.91715852   507524 
 6287000    1.0089655   -1.8343025   -1.8343025  -0.91629272  0.067687507   -1.8343025    0.9180098   507524 
 6288000    1.0067113   -1.8310598   -1.8310598  -0.91510097  0.064447754   -1.8310598   0.91595882   507524 
 6289000    1.0074762   -1.8320617   -1.8320617  -0.91540692  0.075598998   -1.8320617   0.91665475   507524 
 6290000    1.0061753   -1.8310536   -1.8310536  -0.91558238  0.068422092   -1.8310536   0.91547117   507524 
 6291000    1.0088188   -1.8330393   -1.8330393  -0.91516292  0.072717013   -1.8330393   0.91787638   507524 
 6292000     1.010061   -1.8339566   -1.8339566  -0.91495002  0.073536415   -1.8339566    0.9190066   507524 
 6293000    1.0080127   -1.8332564   -1.8332564  -0.91611343   0.07647685   -1.8332564   0.91714294   507524 
 6294000    1.0083055   -1.8331151   -1.8331151  -0.91570581  0.075343891   -1.8331151    0.9174093   507524 
 6295000    1.0097967   -1.8349319   -1.8349319  -0.91616575   0.07161127   -1.8349319   0.91876612   507524 
 6296000    1.0073889   -1.8316288   -1.8316288  -0.91505354  0.071220598   -1.8316288    0.9165753   507524 
 6297000    1.0054647   -1.8289456   -1.8289456  -0.91412104   0.07086383   -1.8289456   0.91482461   507524 
 6298000    1.0077528   -1.8300232   -1.8300232  -0.91311669  0.063908964   -1.8300232   0.91690649   507524 
 6299000    1.0085879   -1.8320729   -1.8320729   -0.9144067  0.071044301   -1.8320729   0.91766622   507524 
 6300000    1.0080795   -1.8316844   -1.8316844  -0.91448075  0.072369542   -1.8316844   0.91720365   507524 
 6301000    1.0079178    -1.831642    -1.831642  -0.91458547  0.071752571    -1.831642   0.91705655   507524 
 6302000    1.0086689   -1.8320511   -1.8320511  -0.91431116  0.069527374   -1.8320511   0.91773995   507524 
 6303000    1.0068299   -1.8309902   -1.8309902  -0.91492344  0.071274874   -1.8309902   0.91606678   507524 
 6304000    1.0051916   -1.8297639   -1.8297639  -0.91518776   0.06788599   -1.8297639   0.91457614   507524 
 6305000     1.006761    -1.831972    -1.831972  -0.91596798  0.070283285    -1.831972   0.91600404   507524 
 6306000    1.0086712   -1.8327039   -1.8327039   -0.9149619   0.07074691   -1.8327039   0.91774203   507524 
 6307000    1.0094957   -1.8333247   -1.8333247  -0.91483247  0.067947938   -1.8333247   0.91849219   507524 
 6308000     1.007552   -1.8317286   -1.8317286   -0.9150049  0.071687269   -1.8317286   0.91672373   507524 
 6309000    1.0080502   -1.8325584   -1.8325584  -0.91538138  0.066183729   -1.8325584   0.91717705   507524 
 6310000    1.0045363   -1.8294711   -1.8294711  -0.91549122  0.073997079   -1.8294711    0.9139799   507524 
 6311000    1.0061042    -1.831045    -1.831045  -0.91563861   0.07053012    -1.831045   0.91540644   507524 
 6312000    1.0102544   -1.8344003   -1.8344003  -0.91521772  0.066793377   -1.8344003   0.91918255   507524 
 6313000    1.0094569   -1.8327085   -1.8327085  -0.91425155  0.067948514   -1.8327085   0.91845692   507524 
 6314000    1.0105625    -1.833113    -1.833113  -0.91365015  0.069144392    -1.833113   0.91946287   507524 
 6315000    1.0106435   -1.8333367   -1.8333367  -0.91380016  0.073358071   -1.8333367   0.91953652   507524 
 6316000    1.0099955   -1.8314919   -1.8314919  -0.91254494  0.075129514   -1.8314919   0.91894696   507524 
 6317000    1.0080042   -1.8299557   -1.8299557   -0.9128206  0.071165571   -1.8299557   0.91713514   507524 
 6318000     1.010322    -1.830873    -1.830873  -0.91162895  0.073194147    -1.830873   0.91924401   507524 
 6319000    1.0099549   -1.8316808   -1.8316808  -0.91277081  0.072732323   -1.8316808      0.91891   507524 
 6320000    1.0104663   -1.8310554   -1.8310554  -0.91168013  0.081239338   -1.8310554   0.91937529   507524 
 6321000    1.0115808    -1.832114    -1.832114  -0.91172465  0.074125681    -1.832114   0.92038931   507524 
 6322000     1.008988   -1.8306609   -1.8306609  -0.91263065  0.077634172   -1.8306609   0.91803026   507524 
 6323000    1.0094423   -1.8317955   -1.8317955  -0.91335187  0.071237026   -1.8317955    0.9184436   507524 
 6324000    1.0084295   -1.8315996   -1.8315996  -0.91407747  0.073043216   -1.8315996   0.91752216   507524 
 6325000    1.0088096    -1.832058    -1.832058  -0.91419003  0.070900091    -1.832058   0.91786794   507524 
 6326000    1.0087349    -1.832465    -1.832465  -0.91466495  0.070256959    -1.832465   0.91780002   507524 
 6327000    1.0082738    -1.832411    -1.832411   -0.9150305   0.07135463    -1.832411   0.91738048   507524 
 6328000    1.0079369   -1.8325833   -1.8325833  -0.91550932  0.071507655   -1.8325833   0.91707398   507524 
 6329000    1.0077858    -1.832021    -1.832021  -0.91508457  0.069456814    -1.832021   0.91693647   507524 
 6330000    1.0083125   -1.8326345   -1.8326345  -0.91521883   0.07015753   -1.8326345   0.91741569   507524 
 6331000    1.0100381   -1.8348303   -1.8348303  -0.91584459  0.068279182   -1.8348303   0.91898574   507524 
 6332000    1.0083623   -1.8331798   -1.8331798  -0.91571879  0.066762829   -1.8331798   0.91746101   507524 
 6333000     1.007525   -1.8328751   -1.8328751    -0.916176  0.071281085   -1.8328751   0.91669914   507524 
 6334000    1.0066626   -1.8318205   -1.8318205  -0.91590599  0.072753515   -1.8318205   0.91591449   507524 
 6335000    1.0069468   -1.8320319   -1.8320319  -0.91585884  0.077783968   -1.8320319   0.91617309   507524 
 6336000    1.0080855   -1.8319047   -1.8319047   -0.9146956  0.067380174   -1.8319047   0.91720913   507524 
 6337000    1.0084612   -1.8327265   -1.8327265   -0.9151755  0.076822235   -1.8327265   0.91755096   507524 
 6338000     1.008736   -1.8319597   -1.8319597  -0.91415864  0.065110372   -1.8319597   0.91780104   507524 
 6339000    1.0067498   -1.8304626   -1.8304626  -0.91446878  0.074202468   -1.8304626   0.91599385   507524 
 6340000    1.0073227   -1.8309904   -1.8309904  -0.91447534  0.074082026   -1.8309904   0.91651511   507524 
 6341000    1.0061696   -1.8304047   -1.8304047  -0.91493874  0.072086103   -1.8304047   0.91546594   507524 
 6342000    1.0060619   -1.8302189   -1.8302189  -0.91485091  0.064011207   -1.8302189     0.915368   507524 
 6343000    1.0061506   -1.8299511   -1.8299511   -0.9145024  0.074960466   -1.8299511   0.91544866   507524 
 6344000    1.0065196   -1.8297662   -1.8297662  -0.91398184  0.067771674   -1.8297662    0.9157844   507524 
 6345000    1.0071082    -1.830921    -1.830921  -0.91460112  0.068696588    -1.830921   0.91631992   507524 
 6346000    1.0082109   -1.8319015   -1.8319015  -0.91457829   0.06750401   -1.8319015   0.91732324   507524 
 6347000    1.0082471   -1.8324796   -1.8324796  -0.91512342  0.073561205   -1.8324796    0.9173562   507524 
 6348000    1.0088669   -1.8331068   -1.8331068  -0.91518663  0.079020601   -1.8331068   0.91792015   507524 
 6349000    1.0084406   -1.8333899   -1.8333899   -0.9158577  0.073178958   -1.8333899   0.91753224   507524 
 6350000    1.0091548   -1.8334026   -1.8334026  -0.91522056  0.072233029   -1.8334026   0.91818207   507524 
 6351000    1.0092387   -1.8335059   -1.8335059  -0.91524751  0.073159516   -1.8335059    0.9182584   507524 
 6352000    1.0093946   -1.8332756   -1.8332756  -0.91487537  0.076412816   -1.8332756   0.91840023   507524 
 6353000    1.0087539   -1.8334875   -1.8334875  -0.91567022  0.070144106   -1.8334875   0.91781732   507524 
 6354000     1.007719   -1.8330613   -1.8330613  -0.91618564  0.071798345   -1.8330613   0.91687567   507524 
 6355000    1.0088541   -1.8331026   -1.8331026  -0.91519418  0.066531962   -1.8331026   0.91790842   507524 
 6356000     1.010332   -1.8360248   -1.8360248  -0.91677163  0.065699802   -1.8360248   0.91925312   507524 
 6357000    1.0077642   -1.8335401   -1.8335401  -0.91662332  0.064515411   -1.8335401    0.9169168   507524 
 6358000    1.0083303   -1.8343134   -1.8343134  -0.91688144  0.067550138   -1.8343134   0.91743191   507524 
 6359000    1.0078967   -1.8343003   -1.8343003  -0.91726292  0.071644089   -1.8343003   0.91703739   507524 
 6360000    1.0084461   -1.8336072   -1.8336072  -0.91606991  0.071651391   -1.8336072   0.91753727   507524 
 6361000    1.0059551   -1.8331615   -1.8331615  -0.91789073   0.06800216   -1.8331615   0.91527076   507524 
 6362000    1.0071542    -1.834039    -1.834039  -0.91767714   0.08089395    -1.834039   0.91636181   507524 
 6363000    1.0087907   -1.8348762   -1.8348762  -0.91702539  0.074252931   -1.8348762   0.91785077   507524 
 6364000    1.0060992   -1.8327911   -1.8327911  -0.91738919  0.069417516   -1.8327911    0.9154019   507524 
 6365000    1.0081318    -1.833577    -1.833577  -0.91632576  0.069997858    -1.833577   0.91725126   507524 
 6366000    1.0068235   -1.8325573   -1.8325573  -0.91649633  0.070751091   -1.8325573   0.91606095   507524 
 6367000     1.007342   -1.8332982   -1.8332982  -0.91676554  0.071979206   -1.8332982    0.9165327   507524 
 6368000    1.0115489   -1.8367573   -1.8367573  -0.91639694  0.071908054   -1.8367573   0.92036033   507524 
 6369000    1.0069004   -1.8337701   -1.8337701  -0.91763922  0.071358466   -1.8337701   0.91613092   507524 
 6370000    1.0091467   -1.8355012   -1.8355012  -0.91732652  0.075625545   -1.8355012   0.91817465   507524 
 6371000    1.0065404   -1.8330005   -1.8330005  -0.91719718  0.070355569   -1.8330005    0.9158033   507524 
 6372000    1.0092015   -1.8346721   -1.8346721  -0.91644761  0.072651464   -1.8346721   0.91822451   507524 
 6373000    1.0091117    -1.835234    -1.835234  -0.91709116  0.074216078    -1.835234   0.91814286   507524 
 6374000    1.0059695   -1.8328586   -1.8328586  -0.91757469  0.071116791   -1.8328586   0.91528389   507524 
 6375000    1.0083287   -1.8354291   -1.8354291  -0.91799866  0.072298884   -1.8354291   0.91743046   507524 
 6376000    1.0078629    -1.835238    -1.835238  -0.91823138  0.071729822    -1.835238   0.91700664   507524 
 6377000    1.0082838   -1.8341277   -1.8341277  -0.91673807  0.071336111   -1.8341277   0.91738958   507524 
 6378000    1.0085847    -1.833704    -1.833704  -0.91604061  0.074577665    -1.833704   0.91766335   507524 
 6379000    1.0103664   -1.8353295   -1.8353295  -0.91604508  0.071898672   -1.8353295   0.91928446   507524 
 6380000    1.0071974   -1.8328872   -1.8328872  -0.91648607  0.072861354   -1.8328872   0.91640113   507524 
 6381000    1.0077902   -1.8335218   -1.8335218   -0.9165813  0.073024668   -1.8335218    0.9169405   507524 
 6382000    1.0082294    -1.833433    -1.833433  -0.91609298  0.067767521    -1.833433   0.91734006   507524 
 6383000    1.0057879   -1.8318011   -1.8318011  -0.91668239  0.080082594   -1.8318011   0.91511866   507524 
 6384000    1.0068701   -1.8328188   -1.8328188  -0.91671541  0.070301143   -1.8328188   0.91610336   507524 
 6385000    1.0069682   -1.8329813   -1.8329813  -0.91678868  0.066407895   -1.8329813   0.91619261   507524 
 6386000    1.0080347   -1.8346909   -1.8346909  -0.91752791  0.070211792   -1.8346909   0.91716295   507524 
 6387000    1.0065903   -1.8338239   -1.8338239  -0.91797512  0.071305255   -1.8338239   0.91584877   507524 
 6388000    1.0068906   -1.8335939   -1.8335939   -0.9174719  0.066632651   -1.8335939   0.91612196   507524 
 6389000    1.0082068   -1.8340601   -1.8340601  -0.91674063  0.062769386   -1.8340601   0.91731951   507524 
 6390000    1.0057656   -1.8319931   -1.8319931  -0.91689475  0.069541166   -1.8319931   0.91509839   507524 
 6391000    1.0081739   -1.8340502   -1.8340502  -0.91676057  0.070741585   -1.8340502   0.91728962   507524 
 6392000    1.0092975   -1.8348726   -1.8348726  -0.91656067  0.068188977   -1.8348726   0.91831189   507524 
 6393000    1.0082186   -1.8339649   -1.8339649  -0.91663467  0.072131414   -1.8339649   0.91733022   507524 
 6394000    1.0068987   -1.8325996   -1.8325996  -0.91647025  0.070043996   -1.8325996   0.91612936   507524 
 6395000     1.007982   -1.8332401   -1.8332401  -0.91612511  0.065422895   -1.8332401   0.91711502   507524 
 6396000    1.0077903   -1.8338349   -1.8338349  -0.91689437  0.067435339   -1.8338349   0.91694054   507524 
 6397000    1.0072993   -1.8331679   -1.8331679  -0.916674