LAMMPS (24 Dec 2020)
OMP_NUM_THREADS environment is not set. Defaulting to 1 thread. (src/comm.cpp:94)
  using 1 OpenMP thread(s) per MPI task
#Read the equilibrated lj fluid and add nanocubes

units           lj
atom_style      full
#atom_modify     map array first cubes
dimension       3
boundary        p p f
pair_style      lj/cut/opt 2.5

variable        sigma           equal 1.0
variable        epsilon         equal 1.0
read_restart	restart.dat.10000000
Reading restart file ...
  restart file = 24 Dec 2020, LAMMPS = 24 Dec 2020
  restoring atom style full from restart
  orthogonal box = (0.0000000 0.0000000 0.0000000) to (120.00000 120.00000 240.00000)
  6 by 8 by 16 MPI processor grid
  restoring pair style lj/cut/opt from restart
  1714209 atoms
Finding 1-2 1-3 1-4 neighbors ...
  special bond factors lj:    0        0        0       
  special bond factors coul:  0        0        0       
     0 = max # of 1-2 neighbors
     0 = max # of 1-3 neighbors
     0 = max # of 1-4 neighbors
     1 = max # of special neighbors
  special bonds CPU = 9.335 seconds
  read_restart CPU = 10.929 seconds

group		solvent type 1
1154139 atoms in group solvent
group 		hull  type 2
218540 atoms in group hull
group 		dummy type 3
341530 atoms in group dummy

neighbor      0.4 bin
neigh_modify  exclude molecule/intra cubes

pair_modify   shift yes

pair_coeff    1 1 1.0 1.0 #solvent
pair_coeff    2 2 1.0 1.0 1.12 #np
pair_coeff    3 3 0.0 0.0 0.0 #dummy
pair_coeff    2 3 0.0 0.0 0.0 #np dummy
pair_coeff    1 2 ${sol} 1.0  #np solvent
pair_coeff    1 2 0.5 1.0  
pair_coeff    1 3 0.0 0.0 0.0 #dummy solvent


comm_modify   mode multi cutoff/multi 1 2.5 cutoff/multi 2 2.5 cutoff/multi 3 6.95

reset_timestep 	0

balance 	1.05 shift z 10 1.05
Balancing ...
Unused restart file global fix info:
  fix style: STORE, fix ID: msd_COMPUTE_STORE
Unused restart file peratom fix info:
  fix style: STORE, fix ID: bin1_COMPUTE_STORE
  fix style: STORE, fix ID: bin3_COMPUTE_STORE
Neighbor list info ...
  update every 1 steps, delay 10 steps, check yes
  max neighbors/atom: 2000, page size: 100000
  master list distance cutoff = 2.9
  ghost atom cutoff = 6.96
  binsize = 1.45, bins = 83 83 166
  1 neighbor lists, perpetual/occasional/extra = 1 0 0
  (1) pair lj/cut/opt, perpetual
      attributes: half, newton on
      pair build: half/bin/newton
      stencil: half/bin/3d/newton
      bin: standard
 rebalancing time: 0.045 seconds
  iteration count = 5
  initial/final maximal load/proc = 3301.0000 3082.0000
  initial/final imbalance factor  = 1.4789142 1.3807978
  x cuts: 0.0000000 0.16666667 0.33333333 0.50000000 0.66666667 0.83333333 1.0000000
  y cuts: 0.0000000 0.12500000 0.25000000 0.37500000 0.50000000 0.62500000 0.75000000 0.87500000 1.0000000
  z cuts: 0.0000000 0.056640625 0.10742188 0.15820312 0.20507812 0.25585938 0.30859375 0.36328125 0.41796875 0.47265625 0.51953125 0.57421875 0.62890625 0.68945312 0.74023438 0.80273438 1.0000000

####################### WALLS ###########################

variable       epsilonWall equal 2*${epsilon}
variable       epsilonWall equal 2*1
variable       repulsive   equal   0.7147*${sigma}
variable       repulsive   equal   0.7147*1
variable       full	   equal   3*${sigma}
variable       full	   equal   3*1
region         lowWall block EDGE EDGE EDGE EDGE EDGE 2

fix            topWall all wall/lj93 zhi EDGE 	       ${epsilonWall} ${sigma} ${repulsive} units box
fix            topWall all wall/lj93 zhi EDGE 	       2 ${sigma} ${repulsive} units box
fix            topWall all wall/lj93 zhi EDGE 	       2 1 ${repulsive} units box
fix            topWall all wall/lj93 zhi EDGE 	       2 1 0.7147 units box
fix            lowSol solvent wall/lj93 zlo EDGE                ${epsilonWall} ${sigma} ${full} units box
fix            lowSol solvent wall/lj93 zlo EDGE                2 ${sigma} ${full} units box
fix            lowSol solvent wall/lj93 zlo EDGE                2 1 ${full} units box
fix            lowSol solvent wall/lj93 zlo EDGE                2 1 3 units box
fix 	       lowCub cubes wall/lj93 zlo EDGE                ${epsilonWall} ${sigma} ${repulsive} units box
fix 	       lowCub cubes wall/lj93 zlo EDGE                2 ${sigma} ${repulsive} units box
fix 	       lowCub cubes wall/lj93 zlo EDGE                2 1 ${repulsive} units box
fix 	       lowCub cubes wall/lj93 zlo EDGE                2 1 0.7147 units box


###################### COMPUTES ##########################

compute        bin1 solvent chunk/atom bin/1d z lower 1.0 units box
compute        bin3 solvent chunk/atom bin/3d x lower 5.0 y lower 5.0 z lower 5.0 units box

compute 	pe solvent 	   pe/atom
compute 	pe2 all 	   pe/atom

######################  FIXES ############################


fix             peclet solvent ave/chunk 10 10 10000 bin1 density/number norm                  none ave one file density.profile

fix              temp solvent ave/chunk 10 10 10000 bin1 temp norm                  none ave one file temp.profile

fix 		 dens solvent ave/chunk 10 10 500000 bin3 density/number norm 		 none ave one file dens3.profile

fix		 temp2 solvent ave/chunk 10 10 500000 bin3 temp norm none ave one file temp3.profile

fix 		pe solvent ave/chunk 1 1 500000 bin3 c_pe norm none ave one file pe3.profile



################### INTEGRATION

fix             1 cubes rigid/nve/small molecule
  create bodies CPU = 0.045 seconds
  490 rigid bodies with 560070 atoms
  6.9554839 = max distance from body owner to body atom

fix             2 solvent nve



## Thermostat
region          regthermo block EDGE EDGE EDGE EDGE 0 15
group           thermo dynamic solvent region regthermo every 1000
dynamic group thermo defined
fix             3 thermo langevin ${temp} ${temp} 10 156453
fix             3 thermo langevin 1.0 ${temp} 10 156453
fix             3 thermo langevin 1.0 1.0 10 156453

## Evaporation
region		regevap block EDGE EDGE EDGE EDGE 140 EDGE
fix 		4 solvent evaporate ${evap} 1 regevap 156415
fix 		4 solvent evaporate 37 1 regevap 156415


#### Load balancing

fix             bal all balance 1000 1.05 shift z 10 1.05

############### Diagnostics and computes ###################

compute        	com cubes          rigid/local   1 mol x y z
compute        	quat cubes         rigid/local   1 mol quatw quati quatj quatk

compute 	cc2 cubes 	   chunk/atom 	 molecule
compute 	msd cubes 	   msd/chunk 	 cc2

fix 		msd all ave/time  1 1 10000 c_msd[*] file dump.msd ave one mode vector

dump            1 all custom 500000 dump.lammpstrj id mol type x y z vx vy vz c_pe2
dump		sol  solvent custom 500000 dump.soltrj id x y z vx vy vz c_pe
dump		cubetrj cubes custom 500000 cubes.lammpstrj id mol type x y z vx vy vz
dump            com cubes local 500000 dump.*.xyz c_com[*]
dump	        xyz hull xyz 500000 cubes.xyz
#dump            quat cubes      local 100000 dump.*.quat c_quat[*]
dump		order cubes 	local 100000 dump.*.order c_com[*] c_quat[*]
#dump		mol cubes molfile 10000 mol.xyz xyz


dump            2 all image 100000 image.*.png type type zoom 1.5 size 1280 720
dump_modify     2 pad 8
dump		image cubes image 100000 image_cubes.*.png type type zoom 1.5 size 1280 720
dump_modify	image pad 8
dump            3 all movie 5000 movie.avi type type zoom 1.5 size 1280 720
dump		4 cubes movie 5000 movie_cubes.avi type type size 1280 720


thermo          1000
thermo_style    custom step temp epair evdwl etotal press pe ke atoms

restart         1000000 restart.dat
timestep        0.005
timer           full
New timer settings: style=full  mode=nosync  timeout=off

run 		${steps}
run 		30000000
Per MPI rank memory allocation (min/avg/max) = 16.91 | 21.94 | 26.45 Mbytes
Step Temp E_pair E_vdwl TotEng Press PotEng KinEng Atoms 
       0    1.0119644   -2.0527359   -2.0527359   -1.0298691  0.052733256   -2.0527359    1.0228668  1714209 
    1000    1.0125488   -2.0533163   -2.0533163   -1.0298428  0.071340368   -2.0533163    1.0234736  1714182 
    2000    1.0119998   -2.0530138   -2.0530138    -1.030079  0.072740384   -2.0530138    1.0229348  1714155 
    3000    1.0117494   -2.0523945   -2.0523945   -1.0296967  0.069013452   -2.0523945    1.0226978  1714128 
    4000    1.0125068   -2.0536934   -2.0536934   -1.0302139  0.069805474   -2.0536934    1.0234795  1714101 
    5000    1.0119501   -2.0527387   -2.0527387   -1.0298058  0.074575812   -2.0527387    1.0229329  1714074 
    6000    1.0101939   -2.0514131   -2.0514131   -1.0302394  0.069577209   -2.0514131    1.0211737  1714047 
    7000    1.0110551   -2.0520916   -2.0520916   -1.0300312  0.072873954   -2.0520916    1.0220604  1714020 
    8000      1.01118   -2.0518583   -2.0518583   -1.0296556  0.070344564   -2.0518583    1.0222028  1713993 
    9000    1.0121692   -2.0524993   -2.0524993   -1.0292804  0.071075627   -2.0524993    1.0232189  1713966 
   10000    1.0125971   -2.0530963   -2.0530963   -1.0294288  0.070618646   -2.0530963    1.0236675  1713939 
   11000    1.0113096   -2.0519033   -2.0519033   -1.0295212  0.070919909   -2.0519033    1.0223821  1713912 
   12000    1.0120948   -2.0531423   -2.0531423   -1.0299503   0.07144802   -2.0531423     1.023192  1713885 
   13000    1.0106442   -2.0520666   -2.0520666   -1.0303251  0.071850205   -2.0520666    1.0217415  1713858 
   14000    1.0106845   -2.0514722   -2.0514722   -1.0296738  0.066976815   -2.0514722    1.0217984  1713831 
   15000    1.0111573   -2.0515904   -2.0515904   -1.0292979  0.067675579   -2.0515904    1.0222925  1713804 
   16000    1.0106471   -2.0511803   -2.0511803   -1.0293875   0.07208499   -2.0511803    1.0217928  1713777 
   17000    1.0113676   -2.0516274   -2.0516274     -1.02909  0.071740316   -2.0516274    1.0225374  1713750 
   18000    1.0108026   -2.0511558   -2.0511558   -1.0291736  0.072950796   -2.0511558    1.0219822  1713723 
   19000    1.0106776   -2.0510034   -2.0510034   -1.0291315   0.07390791   -2.0510034    1.0218719  1713696 
   20000    1.0111937   -2.0517902   -2.0517902   -1.0293804  0.072384237   -2.0517902    1.0224098  1713669 
   21000    1.0109602   -2.0512372   -2.0512372   -1.0290474  0.071148887   -2.0512372    1.0221898  1713642 
   22000    1.0108818   -2.0511774   -2.0511774   -1.0290507  0.069289009   -2.0511774    1.0221267  1713615 
   23000    1.0117508   -2.0517781   -2.0517781   -1.0287566  0.071069729   -2.0517781    1.0230215  1713588 
   24000    1.0113832   -2.0514997   -2.0514997   -1.0288337  0.072750962   -2.0514997    1.0226659  1713561 
   25000    1.0117779   -2.0520225   -2.0520225   -1.0289414  0.072494151   -2.0520225    1.0230811  1713534 
   26000    1.0121992   -2.0524135   -2.0524135   -1.0288902  0.071951976   -2.0524135    1.0235233  1713507 
   27000    1.0119696   -2.0519275   -2.0519275   -1.0286203  0.071806863   -2.0519275    1.0233072  1713480 
   28000    1.0107059   -2.0514106   -2.0514106   -1.0293652  0.067858659   -2.0514106    1.0220455  1713453 
   29000    1.0106798   -2.0511574   -2.0511574   -1.0291222  0.070235912   -2.0511574    1.0220352  1713426 
   30000    1.0114137   -2.0514106   -2.0514106   -1.0286172   0.06986337   -2.0514106    1.0227934  1713399 
   31000    1.0112099   -2.0516601   -2.0516601   -1.0290567  0.072193875   -2.0516601    1.0226034  1713372 
   32000    1.0101695   -2.0503837   -2.0503837   -1.0288163  0.071938448   -2.0503837    1.0215674  1713345 
   33000     1.010203   -2.0502608   -2.0502608   -1.0286433  0.071833548   -2.0502608    1.0216174  1713318 
   34000    1.0106545   -2.0502951   -2.0502951    -1.028205  0.071409729   -2.0502951    1.0220902  1713291 
   35000    1.0114121   -2.0511133   -2.0511133   -1.0282408  0.069212339   -2.0511133    1.0228725  1713264 
   36000    1.0107051   -2.0505053   -2.0505053   -1.0283318  0.070528139   -2.0505053    1.0221735  1713237 
   37000    1.0109108   -2.0502492   -2.0502492   -1.0278509  0.070173121   -2.0502492    1.0223983  1713209 
   38000    1.0111461     -2.05071     -2.05071   -1.0280577  0.074473927     -2.05071    1.0226524  1713182 
   39000    1.0112522   -2.0506133   -2.0506133   -1.0278375  0.076623585   -2.0506133    1.0227758  1713155 
   40000    1.0120911   -2.0513607   -2.0513607   -1.0277203  0.072555597   -2.0513607    1.0236403  1713128 
   41000    1.0110304    -2.050297    -2.050297   -1.0277133  0.071388806    -2.050297    1.0225837  1713101 
   42000    1.0110132   -2.0502483   -2.0502483   -1.0276659  0.073910995   -2.0502483    1.0225824  1713074 
   43000    1.0110728   -2.0505977   -2.0505977   -1.0279389  0.067809418   -2.0505977    1.0226588  1713047 
   44000    1.0115657   -2.0507117   -2.0507117   -1.0275382  0.071426284   -2.0507117    1.0231735  1713020 
   45000    1.0112002   -2.0500089   -2.0500089   -1.0271889   0.07136758   -2.0500089    1.0228199  1712993 
   46000    1.0113771   -2.0507517   -2.0507517   -1.0277368  0.071948414   -2.0507517    1.0230149  1712966 
   47000    1.0103755   -2.0502062   -2.0502062   -1.0281882  0.071944197   -2.0502062     1.022018  1712939 
   48000    1.0114723   -2.0504306   -2.0504306   -1.0272872  0.071367179   -2.0504306    1.0231435  1712912 
   49000    1.0118803   -2.0511256   -2.0511256   -1.0275532  0.070720887   -2.0511256    1.0235724  1712885 
   50000    1.0108112   -2.0494986   -2.0494986   -1.0269916  0.074529826   -2.0494986     1.022507  1712858 
   51000    1.0107041   -2.0493457   -2.0493457   -1.0269309  0.072288529   -2.0493457    1.0224148  1712831 
   52000    1.0101377   -2.0483083   -2.0483083   -1.0264503  0.070525902   -2.0483083     1.021858  1712804 
   53000    1.0104104   -2.0485222   -2.0485222   -1.0263723  0.073314813   -2.0485222    1.0221499  1712777 
   54000    1.0098987   -2.0484854   -2.0484854    -1.026837  0.071681021   -2.0484854    1.0216484  1712750 
   55000    1.0102753   -2.0490751   -2.0490751   -1.0270297  0.073003042   -2.0490751    1.0220454  1712723 
   56000    1.0110927   -2.0500073   -2.0500073   -1.0271187  0.070975315   -2.0500073    1.0228886  1712696 
   57000    1.0106718    -2.049983    -2.049983   -1.0275042  0.069065044    -2.049983    1.0224789  1712669 
   58000    1.0103938   -2.0494213   -2.0494213   -1.0272077  0.073046593   -2.0494213    1.0222137  1712642 
   59000    1.0108128   -2.0498376   -2.0498376   -1.0271838  0.069767339   -2.0498376    1.0226538  1712615 
   60000    1.0111989    -2.049695    -2.049695   -1.0266346  0.071400208    -2.049695    1.0230605  1712588 
   61000    1.0107038   -2.0492562   -2.0492562   -1.0266805  0.072244013   -2.0492562    1.0225757  1712561 
   62000    1.0101537   -2.0491016   -2.0491016   -1.0270664  0.072134574   -2.0491016    1.0220352  1712534 
   63000    1.0097955   -2.0485093   -2.0485093   -1.0268203  0.071079971   -2.0485093     1.021689  1712507 
   64000    1.0093671   -2.0475726   -2.0475726   -1.0263011  0.070402216   -2.0475726    1.0212716  1712480 
   65000    1.0108857   -2.0490849   -2.0490849   -1.0262607  0.070647295   -2.0490849    1.0228242  1712453 
   66000    1.0117344   -2.0498304   -2.0498304   -1.0261313  0.076509288   -2.0498304    1.0236991  1712426 
   67000    1.0104436   -2.0488644   -2.0488644   -1.0264552  0.073706011   -2.0488644    1.0224092  1712399 
   68000    1.0099926   -2.0488925   -2.0488925   -1.0269235   0.07049503   -2.0488925     1.021969  1712372 
   69000    1.0100173   -2.0485293   -2.0485293   -1.0265193  0.072780335   -2.0485293    1.0220101  1712345 
   70000    1.0095052   -2.0482153   -2.0482153   -1.0267074  0.075011848   -2.0482153     1.021508  1712318 
   71000    1.0110476    -2.049079    -2.049079   -1.0259942  0.070959402    -2.049079    1.0230848  1712291 
   72000    1.0104561   -2.0484488   -2.0484488   -1.0259464   0.07038473   -2.0484488    1.0225024  1712264 
   73000    1.0094094   -2.0472292   -2.0472292   -1.0257699  0.067376455   -2.0472292    1.0214593  1712237 
   74000    1.0094943   -2.0472318   -2.0472318   -1.0256699   0.06573049   -2.0472318    1.0215619  1712209 
   75000     1.010163   -2.0477326   -2.0477326   -1.0254778  0.070344887   -2.0477326    1.0222547  1712182 
   76000    1.0094574   -2.0470944   -2.0470944   -1.0255375  0.075116524   -2.0470944    1.0215569  1712155 
   77000    1.0112514   -2.0482364   -2.0482364    -1.024848  0.075094754   -2.0482364    1.0233884  1712128 
   78000    1.0111251   -2.0482537   -2.0482537   -1.0249769  0.074292838   -2.0482537    1.0232768  1712101 
   79000    1.0105335   -2.0476404   -2.0476404   -1.0249462  0.075396257   -2.0476404    1.0226942  1712074 
   80000    1.0090248   -2.0469009   -2.0469009   -1.0257174   0.07091978   -2.0469009    1.0211835  1712047 
   81000     1.009902     -2.04805     -2.04805   -1.0259627  0.071150074     -2.04805    1.0220873  1712020 
   82000    1.0093942    -2.047859    -2.047859   -1.0262695  0.073432278    -2.047859    1.0215895  1711993 
   83000     1.009361   -2.0472315   -2.0472315   -1.0256595  0.069325652   -2.0472315     1.021572  1711966 
   84000    1.0099718   -2.0477339   -2.0477339   -1.0255276  0.071119825   -2.0477339    1.0222063  1711939 
   85000    1.0101306   -2.0482928   -2.0482928   -1.0259096  0.073725073   -2.0482928    1.0223832  1711912 
   86000    1.0093454   -2.0477154   -2.0477154   -1.0261108  0.071962284   -2.0477154    1.0216046  1711885 
   87000    1.0094754   -2.0478501   -2.0478501   -1.0260978  0.072049012   -2.0478501    1.0217523  1711858 
   88000     1.009915   -2.0483318   -2.0483318   -1.0261184  0.070489692   -2.0483318    1.0222134  1711831 
   89000    1.0099534   -2.0478362   -2.0478362   -1.0255678  0.069341781   -2.0478362    1.0222683  1711804 
   90000    1.0092275   -2.0472717   -2.0472717    -1.025722   0.06911484   -2.0472717    1.0215497  1711777 
   91000    1.0088817   -2.0469931   -2.0469931   -1.0257773  0.074624115   -2.0469931    1.0212158  1711750 
   92000    1.0093047    -2.047602    -2.047602   -1.0259419  0.072536955    -2.047602    1.0216601  1711723 
   93000    1.0093674   -2.0478212   -2.0478212   -1.0260816  0.069476002   -2.0478212    1.0217396  1711696 
   94000    1.0096925   -2.0481695   -2.0481695   -1.0260846  0.072442093   -2.0481695    1.0220849  1711669 
   95000    1.0093954   -2.0476283   -2.0476283   -1.0258281  0.073685008   -2.0476283    1.0218003  1711642 
   96000    1.0091121   -2.0472985   -2.0472985   -1.0257689  0.072355336   -2.0472985    1.0215296  1711615 
   97000    1.0089795   -2.0471156   -2.0471156   -1.0257041  0.072779765   -2.0471156    1.0214115  1711588 
   98000    1.0090715   -2.0470316   -2.0470316   -1.0255108   0.07304243   -2.0470316    1.0215207  1711561 
   99000    1.0097162   -2.0475801   -2.0475801   -1.0253906  0.069729414   -2.0475801    1.0221895  1711534 
  100000    1.0086396   -2.0466178   -2.0466178   -1.0255022  0.072738947   -2.0466178    1.0211156  1711507 
  101000    1.0085382   -2.0464872   -2.0464872   -1.0254581  0.075179764   -2.0464872    1.0210291  1711480 
  102000    1.0076742   -2.0457784   -2.0457784    -1.025608  0.071775957   -2.0457784    1.0201705  1711453 
  103000    1.0085485   -2.0463162   -2.0463162   -1.0252444  0.071205536   -2.0463162    1.0210717  1711426 
  104000    1.0096247   -2.0475314   -2.0475314   -1.0253539  0.072438249   -2.0475314    1.0221775  1711399 
  105000    1.0090493   -2.0475478   -2.0475478   -1.0259367  0.074166234   -2.0475478    1.0216111  1711372 
  106000    1.0092064   -2.0473875   -2.0473875   -1.0256013    0.0709861   -2.0473875    1.0217862  1711345 
  107000    1.0086794   -2.0469733   -2.0469733   -1.0257046  0.073550912   -2.0469733    1.0212687  1711318 
  108000    1.0096472   -2.0471525   -2.0471525   -1.0248878  0.070763695   -2.0471525    1.0222648  1711291 
  109000    1.0083062     -2.04639     -2.04639   -1.0254669  0.065891339     -2.04639    1.0209231  1711264 
  110000    1.0083968   -2.0468123   -2.0468123   -1.0257814  0.070919664   -2.0468123    1.0210309  1711237 
  111000    1.0086897   -2.0465003   -2.0465003   -1.0251561  0.072570229   -2.0465003    1.0213442  1711209 
  112000    1.0099538   -2.0480141   -2.0480141   -1.0253738  0.073168267   -2.0480141    1.0226403  1711182 
  113000    1.0099494   -2.0478301   -2.0478301   -1.0251781  0.070509502   -2.0478301     1.022652  1711155 
  114000    1.0096445   -2.0473615   -2.0473615   -1.0250021  0.072599536   -2.0473615    1.0223594  1711128 
  115000    1.0094875   -2.0468956   -2.0468956    -1.024679  0.071681728   -2.0468956    1.0222166  1711101 
  116000    1.0091609   -2.0467922   -2.0467922   -1.0248902  0.071562473   -2.0467922     1.021902  1711074 
  117000    1.0108458   -2.0476248   -2.0476248   -1.0240005  0.073263484   -2.0476248    1.0236242  1711047 
  118000    1.0092995   -2.0464343   -2.0464343   -1.0243598  0.076756813   -2.0464343    1.0220746  1711020 
  119000    1.0087572   -2.0465461   -2.0465461   -1.0250045  0.072224878   -2.0465461    1.0215416  1710993 
  120000    1.0090172   -2.0465759   -2.0465759   -1.0247549  0.071298528   -2.0465759     1.021821  1710966 
  121000    1.0086342    -2.045897    -2.045897   -1.0244478  0.071638415    -2.045897    1.0214493  1710939 
  122000    1.0086431   -2.0458214   -2.0458214    -1.024347  0.069602239   -2.0458214    1.0214744  1710912 
  123000    1.0088679   -2.0453765   -2.0453765   -1.0236584  0.069386294   -2.0453765    1.0217182  1710885 
  124000    1.0095852   -2.0461204   -2.0461204   -1.0236597  0.072976147   -2.0461204    1.0224607  1710858 
  125000    1.0101148   -2.0462733   -2.0462733     -1.02326  0.072205434   -2.0462733    1.0230132  1710831 
  126000    1.0100035    -2.046475    -2.046475   -1.0235584  0.072847233    -2.046475    1.0229167  1710804 
  127000    1.0089778   -2.0454158   -2.0454158   -1.0235219  0.072436021   -2.0454158    1.0218939  1710777 
  128000    1.0089823   -2.0456289   -2.0456289   -1.0237143  0.072826094   -2.0456289    1.0219146  1710750 
  129000    1.0096747   -2.0455755   -2.0455755   -1.0229435  0.072492808   -2.0455755     1.022632  1710723 
  130000     1.009667   -2.0453749   -2.0453749   -1.0227345  0.073545427   -2.0453749    1.0226404  1710696 
  131000    1.0093438    -2.045123    -2.045123   -1.0227938  0.071752037    -2.045123    1.0223292  1710669 
  132000    1.0093584   -2.0453725   -2.0453725   -1.0230124  0.068590599   -2.0453725    1.0223601  1710642 
  133000    1.0089042   -2.0450621   -2.0450621   -1.0231459  0.071252691   -2.0450621    1.0219162  1710615 
  134000    1.0086572   -2.0443794   -2.0443794   -1.0226973  0.069770729   -2.0443794    1.0216821  1710588 
  135000    1.0094766   -2.0453926   -2.0453926   -1.0228644  0.071086489   -2.0453926    1.0225282  1710561 
  136000    1.0095766   -2.0449295   -2.0449295   -1.0222838  0.071538253   -2.0449295    1.0226456  1710534 
  137000    1.0095832   -2.0451481   -2.0451481   -1.0224796  0.071599544   -2.0451481    1.0226685  1710507 
  138000    1.0096004   -2.0451045   -2.0451045   -1.0224024  0.069971296   -2.0451045    1.0227021  1710480 
  139000    1.0093018   -2.0449094   -2.0449094   -1.0224937  0.072318347   -2.0449094    1.0224157  1710453 
  140000    1.0094156   -2.0450831   -2.0450831    -1.022536  0.074502852   -2.0450831    1.0225471  1710426 
  141000    1.0090478   -2.0449269   -2.0449269   -1.0227362  0.071507387   -2.0449269    1.0221907  1710399 
  142000    1.0089826   -2.0451458   -2.0451458    -1.023005  0.069976949   -2.0451458    1.0221407  1710372 
  143000    1.0084916    -2.044761    -2.044761   -1.0231015   0.07208624    -2.044761    1.0216595  1710345 
  144000    1.0090028   -2.0454941   -2.0454941   -1.0233006  0.076004716   -2.0454941    1.0221935  1710318 
  145000     1.009155   -2.0451511   -2.0451511   -1.0227873  0.072139813   -2.0451511    1.0223638  1710291 
  146000    1.0084722   -2.0449788   -2.0449788   -1.0232905  0.076256378   -2.0449788    1.0216882  1710264 
  147000     1.008171   -2.0447482   -2.0447482   -1.0233489  0.075853533   -2.0447482    1.0213992  1710237 
  148000    1.0083859   -2.0456395   -2.0456395   -1.0240058  0.073798328   -2.0456395    1.0216337  1710209 
  149000    1.0088221   -2.0457926   -2.0457926   -1.0237009   0.07202933   -2.0457926    1.0220917  1710182 
  150000    1.0080814   -2.0452546   -2.0452546   -1.0238972  0.073636508   -2.0452546    1.0213574  1710155 
  151000    1.0094973   -2.0458579   -2.0458579   -1.0230498  0.070790169   -2.0458579    1.0228081  1710128 
  152000     1.009274   -2.0452461   -2.0452461   -1.0226481  0.072535083   -2.0452461     1.022598  1710101 
  153000    1.0090209   -2.0451144   -2.0451144   -1.0227567  0.070932026   -2.0451144    1.0223577  1710074 
  154000    1.0092898   -2.0456853   -2.0456853    -1.023039   0.07141862   -2.0456853    1.0226463  1710047 
  155000    1.0086949   -2.0448125   -2.0448125   -1.0227528  0.069494803   -2.0448125    1.0220597  1710020 
  156000    1.0086039   -2.0449174   -2.0449174   -1.0229338  0.069446797   -2.0449174    1.0219836  1709993 
  157000     1.008716   -2.0447891   -2.0447891   -1.0226758  0.073126901   -2.0447891    1.0221133  1709966 
  158000    1.0095249   -2.0459576   -2.0459576   -1.0230084  0.071375262   -2.0459576    1.0229491  1709939 
  159000    1.0090743   -2.0459222   -2.0459222   -1.0234136  0.072182454   -2.0459222    1.0225087  1709912 
  160000    1.0088246   -2.0455002   -2.0455002   -1.0232284  0.074640623   -2.0455002    1.0222718  1709885 
  161000    1.0086873   -2.0455338   -2.0455338    -1.023385  0.073090636   -2.0455338    1.0221488  1709858 
  162000    1.0078272   -2.0446024   -2.0446024   -1.0233091  0.069873826   -2.0446024    1.0212933  1709831 
  163000    1.0097333   -2.0463598   -2.0463598   -1.0231187  0.071602147   -2.0463598    1.0232411  1709804 
  164000    1.0093442   -2.0459287   -2.0459287   -1.0230658  0.073976273   -2.0459287    1.0228629  1709777 
  165000    1.0092064   -2.0457874   -2.0457874   -1.0230479  0.072476451   -2.0457874    1.0227394  1709750 
  166000    1.0090003    -2.045613    -2.045613   -1.0230663  0.073131242    -2.045613    1.0225467  1709723 
  167000    1.0084783   -2.0444642   -2.0444642   -1.0224304  0.070936208   -2.0444642    1.0220339  1709696 
  168000     1.007495   -2.0438027   -2.0438027   -1.0227492  0.070624004   -2.0438027    1.0210534  1709669 
  169000    1.0070441   -2.0432891   -2.0432891   -1.0226765  0.071546323   -2.0432891    1.0206126  1709642 
  170000    1.0073249   -2.0437497   -2.0437497   -1.0228365  0.073655401   -2.0437497    1.0209133  1709615 
  171000     1.008296   -2.0441565   -2.0441565   -1.0222429  0.069073626   -2.0441565    1.0219136  1709588 
  172000    1.0080411   -2.0438656   -2.0438656   -1.0221941  0.072289358   -2.0438656    1.0216714  1709561 
  173000    1.0091529   -2.0453902   -2.0453902   -1.0225757  0.069006455   -2.0453902    1.0228145  1709534 
  174000    1.0088302   -2.0450662   -2.0450662   -1.0225627  0.070794314   -2.0450662    1.0225035  1709507 
  175000    1.0081826   -2.0439167   -2.0439167   -1.0220535  0.070028553   -2.0439167    1.0218632  1709480 
  176000    1.0080241   -2.0433896   -2.0433896   -1.0216709  0.073369729   -2.0433896    1.0217188  1709453 
  177000    1.0083931   -2.0438069   -2.0438069   -1.0216981  0.072298183   -2.0438069    1.0221089  1709426 
  178000    1.0080694   -2.0433721   -2.0433721   -1.0215752  0.070044972   -2.0433721     1.021797  1709399 
  179000    1.0090501   -2.0439436   -2.0439436   -1.0211365  0.068568681   -2.0439436    1.0228071  1709372 
  180000    1.0085038   -2.0431818   -2.0431818   -1.0209123  0.070473027   -2.0431818    1.0222695  1709345 
  181000    1.0087423   -2.0434779   -2.0434779   -1.0209505  0.068880031   -2.0434779    1.0225274  1709318 
  182000     1.008432   -2.0435934   -2.0435934   -1.0213643  0.076064491   -2.0435934    1.0222291  1709291 
  183000    1.0090036   -2.0439703   -2.0439703   -1.0211457  0.071860988   -2.0439703    1.0228246  1709264 
  184000     1.008566    -2.043508    -2.043508   -1.0211108  0.070601685    -2.043508    1.0223972  1709237 
  185000    1.0086109   -2.0433022   -2.0433022   -1.0208427  0.073972544   -2.0433022    1.0224595  1709209 
  186000    1.0085719   -2.0436958   -2.0436958   -1.0212596  0.071252699   -2.0436958    1.0224361  1709182 
  187000    1.0082708   -2.0438953   -2.0438953   -1.0217484  0.071257485   -2.0438953    1.0221469  1709155 
  188000    1.0088391   -2.0446195   -2.0446195   -1.0218802  0.071381021   -2.0446195    1.0227393  1709128 
  189000    1.0085183   -2.0442506   -2.0442506   -1.0218204  0.074556205   -2.0442506    1.0224302  1709101 
  190000    1.0090761   -2.0447212   -2.0447212   -1.0217094  0.072046566   -2.0447212    1.0230118  1709074 
  191000    1.0082588   -2.0439829   -2.0439829   -1.0217835  0.070619334   -2.0439829    1.0221994  1709047 
  192000    1.0091181   -2.0445139   -2.0445139   -1.0214271   0.07176542   -2.0445139    1.0230868  1709020 
  193000    1.0077042   -2.0430613   -2.0430613   -1.0213919  0.072193159   -2.0430613    1.0216694  1708993 
  194000    1.0082007    -2.043408    -2.043408   -1.0212191  0.073937404    -2.043408    1.0221889  1708966 
  195000    1.0084846   -2.0435102   -2.0435102   -1.0210173  0.067218863   -2.0435102    1.0224929  1708939 
  196000    1.0086154   -2.0436233   -2.0436233   -1.0209815  0.070002707   -2.0436233    1.0226418  1708912 
  197000    1.0086887   -2.0435616   -2.0435616   -1.0208294   0.07124839   -2.0435616    1.0227322  1708885 
  198000    1.0085888   -2.0432583   -2.0432583   -1.0206112  0.074517521   -2.0432583    1.0226471  1708858 
  199000    1.0092161   -2.0442284   -2.0442284   -1.0209291  0.070933947   -2.0442284    1.0232993  1708831 
  200000    1.0082962   -2.0435466   -2.0435466   -1.0211639  0.073505985   -2.0435466    1.0223827  1708804 
  201000    1.0089549   -2.0438773   -2.0438773   -1.0208106  0.073029726   -2.0438773    1.0230668  1708777 
  202000    1.0078175    -2.042599    -2.042599   -1.0206694  0.072667887    -2.042599    1.0219296  1708750 
  203000    1.0086216   -2.0436448   -2.0436448   -1.0208837  0.073693339   -2.0436448    1.0227611  1708723 
  204000    1.0081352   -2.0429427   -2.0429427   -1.0206587  0.070955421   -2.0429427     1.022284  1708696 
  205000    1.0084126   -2.0430893   -2.0430893   -1.0205078  0.071373161   -2.0430893    1.0225815  1708669 
  206000    1.0083776   -2.0430754   -2.0430754   -1.0205132   0.07337753   -2.0430754    1.0225622  1708642 
  207000    1.0085504   -2.0438125   -2.0438125   -1.0210589  0.070172515   -2.0438125    1.0227536  1708615 
  208000    1.0078587   -2.0432599   -2.0432599   -1.0211917  0.071260694   -2.0432599    1.0220682  1708588 
  209000     1.008326   -2.0435673   -2.0435673   -1.0210089   0.07286417   -2.0435673    1.0225584  1708561 
  210000    1.0085452   -2.0434343   -2.0434343   -1.0206375  0.069473297   -2.0434343    1.0227968  1708534 
  211000    1.0088362   -2.0432753   -2.0432753   -1.0201672  0.073722373   -2.0432753     1.023108  1708507 
  212000    1.0086237   -2.0429813   -2.0429813   -1.0200726  0.074331765   -2.0429813    1.0229087  1708480 
  213000    1.0079701   -2.0419557   -2.0419557   -1.0196936  0.073701369   -2.0419557     1.022262  1708453 
  214000     1.007475   -2.0417319   -2.0417319   -1.0199558  0.073091077   -2.0417319    1.0217761  1708426 
  215000    1.0083001   -2.0426785   -2.0426785   -1.0200495  0.071880448   -2.0426785     1.022629  1708399 
  216000    1.0076712   -2.0419303   -2.0419303    -1.019923  0.072505864   -2.0419303    1.0220074  1708372 
  217000    1.0084914   -2.0430608   -2.0430608   -1.0202054  0.075144388   -2.0430608    1.0228554  1708345 
  218000    1.0087562   -2.0429533   -2.0429533   -1.0198132  0.070999768   -2.0429533    1.0231401  1708318 
  219000    1.0075644    -2.041984    -2.041984   -1.0200365  0.070335766    -2.041984    1.0219475  1708291 
  220000    1.0076946   -2.0422414   -2.0422414   -1.0201456  0.072453695   -2.0422414    1.0220957  1708264 
  221000    1.0077877   -2.0421856   -2.0421856   -1.0199794  0.071063116   -2.0421856    1.0222062  1708237 
  222000    1.0072688   -2.0418242   -2.0418242   -1.0201275  0.068906182   -2.0418242    1.0216967  1708209 
  223000    1.0073673   -2.0419722   -2.0419722   -1.0201594  0.072304571   -2.0419722    1.0218128  1708182 
  224000    1.0072668   -2.0416597   -2.0416597   -1.0199327  0.073627885   -2.0416597     1.021727  1708155 
  225000    1.0067884   -2.0412454   -2.0412454   -1.0199876  0.071172498   -2.0412454    1.0212578  1708128 
  226000    1.0066348    -2.040679    -2.040679   -1.0195608  0.070764928    -2.040679    1.0211182  1708101 
  227000    1.0074184   -2.0416438   -2.0416438   -1.0197147  0.074062897   -2.0416438    1.0219292  1708074 
  228000    1.0083199    -2.042531    -2.042531   -1.0196711  0.074555082    -2.042531    1.0228599  1708047 
  229000    1.0070203   -2.0418562   -2.0418562   -1.0202986  0.073020086   -2.0418562    1.0215576  1708020 
  230000    1.0063101   -2.0415121   -2.0415121   -1.0206588  0.073553105   -2.0415121    1.0208533  1707993 
  231000     1.006398   -2.0416203   -2.0416203   -1.0206616  0.072511776   -2.0416203    1.0209587  1707966 
  232000     1.006796    -2.041419    -2.041419   -1.0200404  0.071278452    -2.041419    1.0213786  1707939 
  233000    1.0071358   -2.0417293   -2.0417293   -1.0199899  0.071962784   -2.0417293    1.0217395  1707912 
  234000    1.0068953   -2.0418356   -2.0418356    -1.020324  0.070653177   -2.0418356    1.0215116  1707885 
  235000    1.0068888   -2.0412412   -2.0412412   -1.0197201  0.075482069   -2.0412412    1.0215211  1707858 
  236000    1.0056341   -2.0400195   -2.0400195   -1.0197552  0.072582915   -2.0400195    1.0202644  1707831 
  237000    1.0075604   -2.0416429   -2.0416429   -1.0194081   0.07130671   -2.0416429    1.0222349  1707804 
  238000     1.007946   -2.0419007   -2.0419007   -1.0192585  0.070696601   -2.0419007    1.0226422  1707777 
  239000    1.0077424   -2.0413492   -2.0413492   -1.0188974  0.072387547   -2.0413492    1.0224518  1707750 
  240000    1.0082839   -2.0421897   -2.0421897   -1.0191723  0.072624805   -2.0421897    1.0230174  1707723 
  241000    1.0078538   -2.0419527   -2.0419527   -1.0193555  0.073219106   -2.0419527    1.0225972  1707696 
  242000      1.00761    -2.041781    -2.041781   -1.0194151  0.073881688    -2.041781     1.022366  1707669 
  243000    1.0062893   -2.0405159   -2.0405159   -1.0194738  0.075351197   -2.0405159    1.0210421  1707642 
  244000    1.0070943   -2.0409721   -2.0409721   -1.0190971  0.072067116   -2.0409721     1.021875  1707615 
  245000    1.0063847   -2.0404234   -2.0404234   -1.0192522  0.071184884   -2.0404234    1.0211712  1707588 
  246000    1.0066351   -2.0408012   -2.0408012   -1.0193597  0.068297061   -2.0408012    1.0214414  1707561 
  247000    1.0062106   -2.0400799   -2.0400799    -1.019053  0.072664065   -2.0400799    1.0210268  1707534 
  248000    1.0067572   -2.0405156   -2.0405156   -1.0189179  0.071604145   -2.0405156    1.0215976  1707507 
  249000    1.0067496     -2.04043     -2.04043   -1.0188239  0.073158159     -2.04043    1.0216061  1707480 
  250000    1.0069145   -2.0409067   -2.0409067   -1.0191171  0.071092056   -2.0409067    1.0217896  1707453 
  251000    1.0060956   -2.0398852   -2.0398852   -1.0189106   0.06965025   -2.0398852    1.0209746  1707426 
  252000     1.005712   -2.0398702   -2.0398702   -1.0192686  0.069560408   -2.0398702    1.0206016  1707399 
  253000    1.0063542   -2.0402409   -2.0402409   -1.0189715  0.072477066   -2.0402409    1.0212694  1707372 
  254000    1.0072433   -2.0407534   -2.0407534   -1.0185655  0.076826334   -2.0407534    1.0221878  1707345 
  255000    1.0066876   -2.0404613   -2.0404613   -1.0188213  0.072790298   -2.0404613      1.02164  1707318 
  256000    1.0067682   -2.0403641   -2.0403641   -1.0186261  0.071124815   -2.0403641     1.021738  1707291 
  257000    1.0067058   -2.0407657   -2.0407657   -1.0190749   0.06993973   -2.0407657    1.0216908  1707264 
  258000     1.006565   -2.0407074   -2.0407074   -1.0191433   0.07286063   -2.0407074    1.0215641  1707237 
  259000    1.0076111   -2.0413474   -2.0413474   -1.0187049  0.071187484   -2.0413474    1.0226425  1707209 
  260000    1.0060498      -2.0403      -2.0403   -1.0192259  0.072496346      -2.0403    1.0210741  1707182 
  261000    1.0061852   -2.0399651   -2.0399651   -1.0187375  0.071858592   -2.0399651    1.0212277  1707155 
  262000    1.0054432   -2.0392011   -2.0392011   -1.0187104  0.072182215   -2.0392011    1.0204907  1707128 
  263000    1.0075241   -2.0409586   -2.0409586   -1.0183396  0.073225663   -2.0409586     1.022619  1707101 
  264000    1.0067394   -2.0397064   -2.0397064   -1.0178677  0.071843611   -2.0397064    1.0218387  1707074 
  265000    1.0061993   -2.0395937   -2.0395937   -1.0182871  0.070485099   -2.0395937    1.0213066  1707047 
  266000    1.0072433   -2.0408316   -2.0408316   -1.0184491   0.07230203   -2.0408316    1.0223825  1707020 
  267000    1.0074864   -2.0403784   -2.0403784    -1.017733  0.076294181   -2.0403784    1.0226454  1706993 
  268000    1.0068687   -2.0398331   -2.0398331   -1.0177986  0.071302762   -2.0398331    1.0220345  1706966 
  269000    1.0061018   -2.0390135   -2.0390135   -1.0177413  0.072438754   -2.0390135    1.0212722  1706939 
  270000    1.0063505   -2.0389439   -2.0389439    -1.017403  0.070590893   -2.0389439    1.0215408  1706912 
  271000    1.0053872   -2.0383457   -2.0383457   -1.0177665  0.070885919   -2.0383457    1.0205791  1706885 
  272000    1.0050693   -2.0380074   -2.0380074   -1.0177349  0.071844278   -2.0380074    1.0202726  1706858 
  273000    1.0056157   -2.0383724   -2.0383724    -1.017529    0.0697153   -2.0383724    1.0208434  1706831 
  274000    1.0062581   -2.0390059   -2.0390059   -1.0174942  0.072912737   -2.0390059    1.0215117  1706804 
  275000    1.0070699   -2.0405239   -2.0405239    -1.018172  0.072088284   -2.0405239     1.022352  1706777 
  276000    1.0065892   -2.0395507   -2.0395507   -1.0176705  0.070918775   -2.0395507    1.0218802  1706750 
  277000    1.0065404    -2.039984    -2.039984   -1.0181372  0.071862733    -2.039984    1.0218468  1706723 
  278000    1.0064048   -2.0404486   -2.0404486   -1.0187233    0.0738259   -2.0404486    1.0217252  1706696 
  279000    1.0070912    -2.040471    -2.040471   -1.0180326  0.070365348    -2.040471    1.0224383  1706669 
  280000    1.0073402   -2.0405754   -2.0405754   -1.0178682  0.072393997   -2.0405754    1.0227072  1706642 
  281000     1.006877   -2.0400937   -2.0400937   -1.0178405  0.073049752   -2.0400937    1.0222532  1706615 
  282000    1.0068945   -2.0395061   -2.0395061    -1.017219  0.070580982   -2.0395061    1.0222872  1706588 
  283000     1.006279   -2.0393632   -2.0393632   -1.0176848  0.069404112   -2.0393632    1.0216784  1706561 
  284000    1.0068054   -2.0397484   -2.0397484   -1.0175194   0.07300101   -2.0397484    1.0222291  1706534 
  285000    1.0066419   -2.0391781   -2.0391781   -1.0170989  0.073206418   -2.0391781    1.0220792  1706507 
  286000    1.0056297    -2.038189    -2.038189   -1.0171214  0.073288129    -2.038189    1.0210676  1706480 
  287000    1.0061866   -2.0391222   -2.0391222    -1.017473  0.074955903   -2.0391222    1.0216492  1706453 
  288000     1.006133   -2.0392615   -2.0392615   -1.0176506  0.070588197   -2.0392615    1.0216109  1706426 
  289000    1.0074469   -2.0401241   -2.0401241   -1.0171629   0.07146693   -2.0401241    1.0229613  1706399 
  290000    1.0070928   -2.0397794   -2.0397794   -1.0171616  0.073339232   -2.0397794    1.0226179  1706372 
  291000    1.0070267   -2.0397342   -2.0397342   -1.0171672  0.070891834   -2.0397342     1.022567  1706345 
  292000    1.0059005   -2.0384945   -2.0384945    -1.017055   0.07407041   -2.0384945    1.0214396  1706318 
  293000    1.0066626   -2.0392469   -2.0392469   -1.0170174   0.07119651   -2.0392469    1.0222295  1706291 
  294000    1.0056099   -2.0383022   -2.0383022   -1.0171255  0.068700379   -2.0383022    1.0211768  1706264 
  295000    1.0063893   -2.0385722   -2.0385722   -1.0165878  0.071814398   -2.0385722    1.0219844  1706237 
  296000    1.0061856    -2.038574    -2.038574   -1.0167796   0.07573674    -2.038574    1.0217943  1706209 
  297000    1.0059113   -2.0377669   -2.0377669    -1.016235  0.077391435   -2.0377669    1.0215319  1706182 
  298000    1.0055889   -2.0372082   -2.0372082   -1.0159876  0.070385227   -2.0372082    1.0212206  1706155 
  299000    1.0054492    -2.037438    -2.037438    -1.016343  0.070875494    -2.037438     1.021095  1706128 
  300000    1.0059046   -2.0378758   -2.0378758   -1.0163022  0.069978583   -2.0378758    1.0215736  1706101 
  301000    1.0061758   -2.0378322   -2.0378322   -1.0159671  0.070384583   -2.0378322    1.0218652  1706074 
  302000    1.0053286   -2.0369916   -2.0369916   -1.0159706  0.070850234   -2.0369916    1.0210209  1706047 
  303000    1.0054221   -2.0370893   -2.0370893   -1.0159573  0.073062493   -2.0370893    1.0211321  1706020 
  304000    1.0060199   -2.0379455   -2.0379455   -1.0161902  0.072093938   -2.0379455    1.0217553  1705993 
  305000    1.0063904   -2.0381019   -2.0381019    -1.015954  0.069797401   -2.0381019    1.0221479  1705966 
  306000    1.0053422    -2.037779    -2.037779   -1.0166796  0.069072129    -2.037779    1.0210994  1705939 
  307000     1.005781   -2.0379294   -2.0379294   -1.0163681  0.071358742   -2.0379294    1.0215613  1705912 
  308000    1.0046265   -2.0370558   -2.0370558    -1.016651  0.069666167   -2.0370558    1.0204048  1705885 
  309000    1.0059537   -2.0379823   -2.0379823   -1.0162133  0.070759329   -2.0379823     1.021769  1705858 
  310000    1.0058316   -2.0378968   -2.0378968   -1.0162357  0.072252384   -2.0378968    1.0216611  1705831 
  311000    1.0067946   -2.0385335   -2.0385335    -1.015878  0.072685528   -2.0385335    1.0226555  1705804 
  312000    1.0066145   -2.0375976   -2.0375976   -1.0151088  0.074200778   -2.0375976    1.0224887  1705777 
  313000    1.0065931   -2.0377985   -2.0377985   -1.0153154  0.071127223   -2.0377985    1.0224832  1705750 
  314000    1.0073051   -2.0383651   -2.0383651   -1.0151425  0.068942206   -2.0383651    1.0232226  1705723 
  315000    1.0060112   -2.0375641   -2.0375641   -1.0156396  0.073747374   -2.0375641    1.0219244  1705696 
  316000    1.0057719   -2.0374034   -2.0374034   -1.0157058  0.070762315   -2.0374034    1.0216976  1705669 
  317000    1.0050144    -2.036755    -2.036755   -1.0158108  0.074427737    -2.036755    1.0209442  1705642 
  318000    1.0044292   -2.0362387   -2.0362387   -1.0158727  0.073395455   -2.0362387    1.0203659  1705615 
  319000    1.0043115   -2.0362566   -2.0362566   -1.0159941    0.0707953   -2.0362566    1.0202625  1705588 
  320000    1.0037777   -2.0355805   -2.0355805   -1.0158441  0.072039972   -2.0355805    1.0197364  1705561 
  321000    1.0058233   -2.0378006   -2.0378006     -1.01597  0.070742879   -2.0378006    1.0218306  1705534 
  322000    1.0064337   -2.0381887   -2.0381887   -1.0157218  0.071571534   -2.0381887    1.0224669  1705507 
  323000    1.0065349   -2.0383492   -2.0383492   -1.0157633  0.071852832   -2.0383492    1.0225859  1705480 
  324000    1.0056969   -2.0373466   -2.0373466   -1.0155959  0.074478135   -2.0373466    1.0217508  1705453 
  325000    1.0068754   -2.0386345   -2.0386345   -1.0156702  0.074630028   -2.0386345    1.0229643  1705426 
  326000     1.005614    -2.037453    -2.037453   -1.0157541   0.07095822    -2.037453    1.0216989  1705399 
  327000    1.0052272    -2.037009    -2.037009   -1.0156869  0.073303466    -2.037009    1.0213221  1705372 
  328000    1.0055934   -2.0372046   -2.0372046   -1.0154943  0.071166461   -2.0372046    1.0217103  1705345 
  329000    1.0056285    -2.037202    -2.037202   -1.0154399  0.069229948    -2.037202    1.0217621  1705318 
  330000    1.0047964   -2.0362926   -2.0362926   -1.0153598  0.072416256   -2.0362926    1.0209329  1705291 
  331000      1.00525    -2.035996    -2.035996    -1.014586  0.074493103    -2.035996    1.0214099  1705264 
  332000    1.0056544   -2.0368518   -2.0368518   -1.0150148  0.072931813   -2.0368518     1.021837  1705237 
  333000    1.0058976   -2.0364463   -2.0364463   -1.0143455  0.074827575   -2.0364463    1.0221009  1705209 
  334000    1.0060961   -2.0367574   -2.0367574   -1.0144386  0.075163159   -2.0367574    1.0223188  1705182 
  335000     1.005648   -2.0370027   -2.0370027   -1.0151231  0.074606398   -2.0370027    1.0218796  1705155 
  336000    1.0061659   -2.0373918   -2.0373918   -1.0149697  0.070789059   -2.0373918    1.0224221  1705128 
  337000     1.005794   -2.0366664   -2.0366664    -1.014606  0.074497771   -2.0366664    1.0220604  1705101 
  338000     1.005774    -2.036575    -2.036575   -1.0145188  0.071656309    -2.036575    1.0220562  1705074 
  339000    1.0058586    -2.036285    -2.036285   -1.0141267  0.071989203    -2.036285    1.0221584  1705047 
  340000    1.0059498   -2.0365288   -2.0365288   -1.0142616  0.070849783   -2.0365288    1.0222672  1705020 
  341000    1.0058917   -2.0366413   -2.0366413    -1.014417  0.071906313   -2.0366413    1.0222244  1704993 
  342000    1.0052694   -2.0361842   -2.0361842   -1.0145761  0.072401699   -2.0361842    1.0216081  1704966 
  343000    1.0054519   -2.0358404   -2.0358404   -1.0140306   0.07002504   -2.0358404    1.0218098  1704939 
  344000    1.0053895   -2.0357692   -2.0357692   -1.0140066  0.072222291   -2.0357692    1.0217626  1704912 
  345000    1.0057942   -2.0366814   -2.0366814   -1.0144913  0.070872523   -2.0366814    1.0221901  1704885 
  346000     1.005414   -2.0363307   -2.0363307   -1.0145108  0.071091202   -2.0363307    1.0218199  1704858 
  347000    1.0050964   -2.0357952   -2.0357952   -1.0142819   0.07205855   -2.0357952    1.0215132  1704831 
  348000    1.0044275   -2.0347686   -2.0347686    -1.013919  0.071123797   -2.0347686    1.0208496  1704804 
  349000    1.0063038   -2.0361638   -2.0361638   -1.0133911  0.072367891   -2.0361638    1.0227727  1704777 
  350000    1.0062322   -2.0364004   -2.0364004   -1.0136842  0.073902308   -2.0364004    1.0227162  1704750 
  351000     1.005584     -2.03558     -2.03558   -1.0135065  0.071237133     -2.03558    1.0220735  1704723 
  352000    1.0052942   -2.0350756   -2.0350756   -1.0132804  0.070659014   -2.0350756    1.0217952  1704696 
  353000    1.0051178   -2.0351542   -2.0351542   -1.0135222  0.072336703   -2.0351542    1.0216321  1704669 
  354000    1.0053579   -2.0354754   -2.0354754   -1.0135831  0.071430325   -2.0354754    1.0218923  1704642 
  355000    1.0046098   -2.0348237   -2.0348237   -1.0136757  0.072304569   -2.0348237     1.021148  1704615 
  356000    1.0062238    -2.035891    -2.035891   -1.0130863  0.074150449    -2.035891    1.0228048  1704588 
  357000    1.0051027   -2.0345382   -2.0345382   -1.0128568  0.076339927   -2.0345382    1.0216814  1704561 
  358000    1.0049109   -2.0344003   -2.0344003   -1.0128977  0.070478243   -2.0344003    1.0215027  1704534 
  359000    1.0041131   -2.0339759   -2.0339759   -1.0132681  0.074439189   -2.0339759    1.0207078  1704507 
  360000    1.0045586   -2.0338522   -2.0338522   -1.0126752  0.070840483   -2.0338522    1.0211769  1704480 
  361000    1.0047909   -2.0342779   -2.0342779   -1.0128487  0.073108096   -2.0342779    1.0214292  1704453 
  362000    1.0045678   -2.0338916   -2.0338916    -1.012673  0.070708272   -2.0338916    1.0212186  1704426 
  363000    1.0053086   -2.0344476   -2.0344476   -1.0124597  0.076090634   -2.0344476    1.0219878  1704399 
  364000    1.0060067   -2.0354751   -2.0354751   -1.0127613  0.073657236   -2.0354751    1.0227138  1704372 
  365000    1.0052229   -2.0348346   -2.0348346   -1.0129015  0.069779842   -2.0348346    1.0219331  1704345 
  366000    1.0057065   -2.0352377   -2.0352377   -1.0127968  0.072510904   -2.0352377    1.0224409  1704318 
  367000    1.0060543    -2.035343    -2.035343   -1.0125323  0.070797662    -2.035343    1.0228107  1704291 
  368000    1.0053459   -2.0349162   -2.0349162   -1.0128095   0.07015085   -2.0349162    1.0221067  1704264 
  369000    1.0044022   -2.0337432   -2.0337432   -1.0125797  0.070321327   -2.0337432    1.0211635  1704237 
  370000    1.0051291   -2.0347089   -2.0347089   -1.0127896  0.071892211   -2.0347089    1.0219193  1704209 
  371000    1.0062766     -2.03611     -2.03611   -1.0130078  0.071740783     -2.03611    1.0231021  1704182 
  372000    1.0053359   -2.0353341   -2.0353341   -1.0131721  0.070909848   -2.0353341    1.0221619  1704155 
  373000    1.0050186   -2.0345679   -2.0345679   -1.0127124   0.07510211   -2.0345679    1.0218555  1704128 
  374000    1.0059899   -2.0356635   -2.0356635   -1.0128042  0.072085046   -2.0356635    1.0228593  1704101 
  375000    1.0057433   -2.0349869   -2.0349869   -1.0123621  0.075450206   -2.0349869    1.0226248  1704074 
  376000    1.0068847   -2.0363826   -2.0363826    -1.012581  0.074033771   -2.0363826    1.0238016  1704047 
  377000    1.0049789   -2.0343128   -2.0343128   -1.0124329  0.072356522   -2.0343128    1.0218799  1704020 
  378000    1.0055638   -2.0353284   -2.0353284   -1.0128375  0.071828217   -2.0353284    1.0224909  1703993 
  379000    1.0050292     -2.03446     -2.03446   -1.0124965  0.071840339     -2.03446    1.0219635  1703966 
  380000    1.0050571   -2.0348274   -2.0348274   -1.0128194  0.076630243   -2.0348274     1.022008  1703939 
  381000    1.0043596   -2.0345761   -2.0345761   -1.0132612  0.075172141   -2.0345761    1.0213149  1703912 
  382000    1.0055546   -2.0354777   -2.0354777   -1.0129314   0.07578402   -2.0354777    1.0225463  1703885 
  383000     1.005684   -2.0359758   -2.0359758   -1.0132817  0.072833769   -2.0359758    1.0226941  1703858 
  384000    1.0045651   -2.0349083   -2.0349083   -1.0133358  0.072044054   -2.0349083    1.0215725  1703831 
  385000    1.0054099   -2.0359908   -2.0359908    -1.013543  0.072389978   -2.0359908    1.0224478  1703804 
  386000    1.0050065   -2.0355142   -2.0355142   -1.0134605  0.074773955   -2.0355142    1.0220538  1703777 
  387000    1.0047925   -2.0353397   -2.0353397   -1.0134874  0.075979402   -2.0353397    1.0218523  1703750 
  388000    1.0049714   -2.0354762   -2.0354762   -1.0134258  0.072391658   -2.0354762    1.0220504  1703723 
  389000    1.0047899   -2.0346452   -2.0346452   -1.0127632  0.073577569   -2.0346452     1.021882  1703696 
  390000    1.0050079   -2.0350421   -2.0350421   -1.0129221   0.07292248   -2.0350421      1.02212  1703669 
  391000     1.004664   -2.0349638   -2.0349638   -1.0131774   0.07042462   -2.0349638    1.0217864  1703642 
  392000    1.0051077   -2.0350591   -2.0350591   -1.0128053   0.07409574   -2.0350591    1.0222539  1703615 
  393000    1.0057699   -2.0353612   -2.0353612   -1.0124176   0.07600785   -2.0353612    1.0229436  1703588 
  394000    1.0046699   -2.0345565   -2.0345565   -1.0127155  0.071204093   -2.0345565     1.021841  1703561 
  395000     1.005602   -2.0347991   -2.0347991   -1.0119938  0.070422023   -2.0347991    1.0228053  1703534 
  396000    1.0037927   -2.0331934   -2.0331934   -1.0122123  0.073170869   -2.0331934    1.0209811  1703507 
  397000    1.0037028   -2.0332947   -2.0332947   -1.0123889  0.072722602   -2.0332947    1.0209059  1703480 
  398000    1.0051026   -2.0343642   -2.0343642   -1.0120184  0.067284218   -2.0343642    1.0223458  1703453 
  399000    1.0036891   -2.0335035   -2.0335035   -1.0125792  0.072661428   -2.0335035    1.0209243  1703426 
  400000    1.0036605   -2.0335685   -2.0335685   -1.0126572  0.072939735   -2.0335685    1.0209114  1703399 
  401000     1.003141   -2.0330952   -2.0330952    -1.012696  0.071501871   -2.0330952    1.0203992  1703372 
  402000    1.0030522   -2.0330569   -2.0330569   -1.0127319  0.074174103   -2.0330569     1.020325  1703345 
  403000    1.0033448   -2.0327989   -2.0327989   -1.0121601  0.070215191   -2.0327989    1.0206388  1703318 
  404000    1.0037123   -2.0330708   -2.0330708    -1.012042  0.070592528   -2.0330708    1.0210288  1703291 
  405000    1.0045402   -2.0336806   -2.0336806   -1.0117935  0.070705484   -2.0336806    1.0218872  1703264 
  406000    1.0034479   -2.0327007   -2.0327007   -1.0119084  0.075975264   -2.0327007    1.0207922  1703237 
  407000    1.0042918   -2.0331363   -2.0331363   -1.0114688  0.070066097   -2.0331363    1.0216675  1703209 
  408000    1.0048542   -2.0341826   -2.0341826   -1.0119267  0.069864106   -2.0341826    1.0222559  1703182 
  409000    1.0056947   -2.0348416   -2.0348416   -1.0117145  0.073330615   -2.0348416    1.0231271  1703155 
  410000    1.0051379   -2.0340353   -2.0340353   -1.0114585  0.073127974   -2.0340353    1.0225768  1703128 
  411000    1.0040616   -2.0329533   -2.0329533   -1.0114552  0.070793103   -2.0329533    1.0214981  1703101 
  412000    1.0035805   -2.0318544   -2.0318544   -1.0108296  0.072107932   -2.0318544    1.0210248  1703074 
  413000    1.0034504   -2.0316049   -2.0316049   -1.0106962  0.070650686   -2.0316049    1.0209087  1703047 
  414000    1.0032462   -2.0315171   -2.0315171      -1.0108  0.070129148   -2.0315171    1.0207171  1703020 
  415000    1.0032256   -2.0313768   -2.0313768   -1.0106646  0.068227963   -2.0313768    1.0207123  1702993 
  416000    1.0038574   -2.0318317   -2.0318317   -1.0104603  0.071101096   -2.0318317    1.0213713  1702966 
  417000    1.0033146     -2.03142     -2.03142   -1.0105848   0.07308893     -2.03142    1.0208352  1702939 
  418000    1.0032052   -2.0312778   -2.0312778   -1.0105377  0.070640095   -2.0312778    1.0207401  1702912 
  419000    1.0039536   -2.0319423   -2.0319423   -1.0104245  0.071148536   -2.0319423    1.0215178  1702885 
  420000    1.0035188   -2.0318242   -2.0318242   -1.0107327  0.073624925   -2.0318242    1.0210915  1702858 
  421000    1.0050009   -2.0331925   -2.0331925   -1.0105766  0.072005478   -2.0331925    1.0226159  1702831 
  422000    1.0050393   -2.0334953   -2.0334953   -1.0108241  0.074440134   -2.0334953    1.0226712  1702804 
  423000    1.0046886   -2.0331163   -2.0331163   -1.0107858   0.07534802   -2.0331163    1.0223305  1702777 
  424000    1.0037639   -2.0323543   -2.0323543   -1.0109485  0.073670158   -2.0323543    1.0214058  1702750 
  425000    1.0035879   -2.0315826   -2.0315826   -1.0103398   0.07518796   -2.0315826    1.0212428  1702723 
  426000    1.0030939   -2.0312766   -2.0312766   -1.0105203  0.072807718   -2.0312766    1.0207563  1702696 
  427000    1.0027157   -2.0310895   -2.0310895   -1.0107018  0.073781741   -2.0310895    1.0203877  1702669 
  428000    1.0033043   -2.0318712   -2.0318712   -1.0108684  0.073615296   -2.0318712    1.0210028  1702642 
  429000    1.0033142   -2.0317727   -2.0317727   -1.0107436  0.072692181   -2.0317727    1.0210291  1702615 
  430000    1.0034608   -2.0318916   -2.0318916   -1.0106971  0.076348773   -2.0318916    1.0211944  1702588 
  431000    1.0027851   -2.0319147   -2.0319147   -1.0113917  0.072261104   -2.0319147    1.0205231  1702561 
  432000    1.0029305   -2.0320599   -2.0320599   -1.0113728  0.075198007   -2.0320599    1.0206871  1702534 
  433000    1.0017648   -2.0315387   -2.0315387   -1.0120217  0.072508943   -2.0315387     1.019517  1702507 
  434000    1.0021134   -2.0312956   -2.0312956   -1.0114076  0.071727613   -2.0312956     1.019888  1702480 
  435000     1.004216   -2.0335288   -2.0335288   -1.0114847  0.070132712   -2.0335288    1.0220441  1702453 
  436000    1.0038751   -2.0330584   -2.0330584   -1.0113452  0.072911671   -2.0330584    1.0217133  1702426 
  437000     1.003383   -2.0325716   -2.0325716   -1.0113429   0.07059879   -2.0325716    1.0212287  1702399 
  438000    1.0029747   -2.0324643   -2.0324643    -1.011635  0.069989969   -2.0324643    1.0208293  1702372 
  439000     1.002286   -2.0313805   -2.0313805   -1.0112359  0.072688836   -2.0313805    1.0201445  1702345 
  440000    1.0037681   -2.0330795   -2.0330795   -1.0114104  0.072488403   -2.0330795    1.0216692  1702318 
  441000    1.0034918   -2.0327147   -2.0327147   -1.0113105  0.074448778   -2.0327147    1.0214042  1702291 
  442000    1.0047812   -2.0339442   -2.0339442   -1.0112113   0.07365125   -2.0339442    1.0227329  1702264 
  443000    1.0036135   -2.0328781   -2.0328781   -1.0113176  0.071483028   -2.0328781    1.0215605  1702237 
  444000    1.0024502   -2.0315899   -2.0315899   -1.0111967  0.075468782   -2.0315899    1.0203931  1702209 
  445000    1.0024619   -2.0317715   -2.0317715   -1.0113502  0.075097758   -2.0317715    1.0204213  1702182 
  446000    1.0028386   -2.0318179   -2.0318179   -1.0109971  0.074058819   -2.0318179    1.0208209  1702155 
  447000    1.0035059   -2.0327227   -2.0327227   -1.0112063  0.073106713   -2.0327227    1.0215164  1702128 
  448000    1.0031987   -2.0323942   -2.0323942   -1.0111744  0.074294453   -2.0323942    1.0212198  1702101 
  449000    1.0021135    -2.031385    -2.031385   -1.0112536  0.075525395    -2.031385    1.0201314  1702074 
  450000    1.0025326   -2.0321391   -2.0321391   -1.0115649  0.068402949   -2.0321391    1.0205741  1702047 
  451000    1.0019607   -2.0308024   -2.0308024   -1.0107942  0.073810398   -2.0308024    1.0200082  1702020 
  452000    1.0023383   -2.0312699   -2.0312699   -1.0108612  0.072154948   -2.0312699    1.0204087  1701993 
  453000    1.0024685   -2.0314332   -2.0314332   -1.0108757  0.070867198   -2.0314332    1.0205574  1701966 
  454000    1.0023932   -2.0311285   -2.0311285   -1.0106315  0.073988417   -2.0311285     1.020497  1701939 
  455000    1.0016875   -2.0304127   -2.0304127    -1.010618  0.074072195   -2.0304127    1.0197948  1701912 
  456000    1.0005447   -2.0300695   -2.0300695   -1.0114221  0.071247049   -2.0300695    1.0186474  1701885 
  457000     1.001056   -2.0307232   -2.0307232    -1.011539  0.073574081   -2.0307232    1.0191841  1701858 
  458000    1.0020924   -2.0319975   -2.0319975    -1.011742  0.069928942   -2.0319975    1.0202555  1701831 
  459000     1.002339   -2.0317139   -2.0317139   -1.0111911  0.073772578   -2.0317139    1.0205228  1701804 
  460000    1.0027357   -2.0322112   -2.0322112   -1.0112684  0.070362083   -2.0322112    1.0209428  1701777 
  461000    1.0032721   -2.0334565   -2.0334565   -1.0119512  0.073793437   -2.0334565    1.0215052  1701750 
  462000    1.0022019   -2.0320248   -2.0320248   -1.0115931  0.071238237   -2.0320248    1.0204317  1701723 
  463000    1.0014071   -2.0310886   -2.0310886     -1.01145  0.071922924   -2.0310886    1.0196387  1701696 
  464000    1.0018121   -2.0314957   -2.0314957   -1.0114285  0.076340823   -2.0314957    1.0200673  1701669 
  465000    1.0012878   -2.0307382   -2.0307382   -1.0111886   0.07257559   -2.0307382    1.0195495  1701642 
  466000    1.0015106   -2.0312109   -2.0312109   -1.0114183  0.068646576   -2.0312109    1.0197926  1701615 
  467000    1.0014928   -2.0308438   -2.0308438   -1.0110531  0.070860463   -2.0308438    1.0197907  1701588 
  468000    1.0008631   -2.0303729   -2.0303729   -1.0112073  0.067791502   -2.0303729    1.0191656  1701561 
  469000    1.0022015   -2.0315791   -2.0315791   -1.0110344  0.071127548   -2.0315791    1.0205447  1701534 
  470000    1.0020611   -2.0309603   -2.0309603   -1.0105425  0.072917811   -2.0309603    1.0204179  1701507 
  471000    1.0018251    -2.031021    -2.031021   -1.0108273  0.070413516    -2.031021    1.0201938  1701480 
  472000    1.0011721   -2.0301493   -2.0301493   -1.0106044  0.070540199   -2.0301493     1.019545  1701453 
  473000    1.0008223   -2.0290501   -2.0290501   -1.0098452   0.06779723   -2.0290501    1.0192049  1701426 
  474000    1.0007354   -2.0290981   -2.0290981   -1.0099655  0.071179899   -2.0290981    1.0191326  1701399 
  475000    1.0014795   -2.0298526   -2.0298526    -1.009946  0.070518023   -2.0298526    1.0199066  1701372 
  476000    1.0022162   -2.0302915   -2.0302915   -1.0096185  0.072519523   -2.0302915     1.020673  1701345 
  477000    1.0022941   -2.0302721   -2.0302721   -1.0095035  0.072855317   -2.0302721    1.0207686  1701318 
  478000    1.0026514   -2.0303514   -2.0303514   -1.0092028  0.071238873   -2.0303514    1.0211486  1701291 
  479000    1.0022222   -2.0295054   -2.0295054   -1.0087777  0.073053403   -2.0295054    1.0207278  1701264 
  480000    1.0019354   -2.0289834   -2.0289834   -1.0085316  0.072662615   -2.0289834    1.0204518  1701237 
  481000    1.0024478   -2.0295179   -2.0295179   -1.0085273   0.07557645   -2.0295179    1.0209905  1701209 
  482000    1.0014649   -2.0287925   -2.0287925   -1.0087869  0.072792011   -2.0287925    1.0200057  1701182 
  483000    1.0012258   -2.0282176   -2.0282176   -1.0084393   0.07065644   -2.0282176    1.0197783  1701155 
  484000    1.0017401   -2.0286738   -2.0286738   -1.0083555  0.069367532   -2.0286738    1.0203183  1701128 
  485000    1.0014714   -2.0280295   -2.0280295   -1.0079687  0.068467105   -2.0280295    1.0200608  1701101 
  486000    1.0013096   -2.0279923   -2.0279923   -1.0080801  0.072733826   -2.0279923    1.0199122  1701074 
  487000    1.0007286   -2.0278234   -2.0278234   -1.0084868  0.071980024   -2.0278234    1.0193366  1701047 
  488000    1.0018805   -2.0284565   -2.0284565   -1.0079304  0.071580678   -2.0284565    1.0205261  1701020 
  489000    1.0022751   -2.0290466   -2.0290466   -1.0081024  0.069819063   -2.0290466    1.0209442  1700993 
  490000    1.0005432    -2.027102    -2.027102   -1.0079057  0.071770177    -2.027102    1.0191963  1700966 
  491000    1.0015328   -2.0278958   -2.0278958   -1.0076753  0.071457841   -2.0278958    1.0202205  1700939 
  492000    1.0025295   -2.0287732   -2.0287732   -1.0075212  0.072447085   -2.0287732     1.021252  1700912 
  493000    1.0024841   -2.0288306   -2.0288306   -1.0076087  0.073067089   -2.0288306    1.0212219  1700885 
  494000    1.0019924   -2.0286971   -2.0286971   -1.0079598  0.070718758   -2.0286971    1.0207373  1700858 
  495000    1.0018745   -2.0286313   -2.0286313    -1.007998   0.07156339   -2.0286313    1.0206334  1700831 
  496000    1.0012822   -2.0278764   -2.0278764   -1.0078302  0.069023979   -2.0278764    1.0200462  1700804 
  497000    1.0014778   -2.0288009   -2.0288009   -1.0085393  0.074212454   -2.0288009    1.0202616  1700777 
  498000    1.0016509   -2.0291092   -2.0291092    -1.008655  0.070512166   -2.0291092    1.0204542  1700750 
  499000    1.0015587   -2.0295373   -2.0295373   -1.0091608  0.071353587   -2.0295373    1.0203765  1700723 
  500000    1.0012334   -2.0287113   -2.0287113   -1.0086501  0.074551057   -2.0287113    1.0200612  1700696 
  501000    1.0020461   -2.0288282   -2.0288282   -1.0079227  0.069499124   -2.0288282    1.0209055  1700669 
  502000    1.0016172   -2.0287608   -2.0287608   -1.0082762  0.072497764   -2.0287608    1.0204847  1700642 
  503000    1.0012308   -2.0279607   -2.0279607   -1.0078535   0.06958847   -2.0279607    1.0201072  1700615 
  504000    1.0024821   -2.0289958   -2.0289958   -1.0075975  0.074301781   -2.0289958    1.0213983  1700588 
  505000    1.0016134   -2.0274354   -2.0274354    -1.006906    0.0731234   -2.0274354    1.0205294  1700561 
  506000    1.0019664   -2.0278739   -2.0278739   -1.0069687   0.07489116   -2.0278739    1.0209053  1700534 
  507000    1.0010652   -2.0270852   -2.0270852    -1.007082  0.072643369   -2.0270852    1.0200032  1700507 
  508000    1.0010528   -2.0268235   -2.0268235   -1.0068167  0.070962787   -2.0268235    1.0200068  1700480 
  509000    1.0015177   -2.0271035   -2.0271035   -1.0066068  0.075913632   -2.0271035    1.0204968  1700453 
  510000    1.0028004   -2.0282381   -2.0282381   -1.0064182  0.072376611   -2.0282381    1.0218199  1700426 
  511000    1.0027677   -2.0283434   -2.0283434   -1.0065405  0.070901166   -2.0283434    1.0218028  1700399 
  512000    1.0024257   -2.0286409   -2.0286409   -1.0071703  0.074100793   -2.0286409    1.0214706  1700372 
  513000    1.0027573   -2.0289549   -2.0289549   -1.0071302   0.07555973   -2.0289549    1.0218247  1700345 
  514000    1.0018739   -2.0286112   -2.0286112   -1.0076705  0.073581829   -2.0286112    1.0209407  1700318 
  515000    1.0031885   -2.0297142   -2.0297142   -1.0074176  0.075694476   -2.0297142    1.0222966  1700291 
  516000    1.0013767   -2.0281571   -2.0281571   -1.0076907  0.074914347   -2.0281571    1.0204664  1700264 
  517000     1.000579   -2.0271682   -2.0271682   -1.0074985   0.07425013   -2.0271682    1.0196697  1700237 
  518000    1.0014794   -2.0275826   -2.0275826   -1.0069785  0.070560972   -2.0275826    1.0206042  1700209 
  519000    1.0018051   -2.0283361   -2.0283361   -1.0073838  0.072601087   -2.0283361    1.0209523  1700182 
  520000    1.0015235   -2.0277373   -2.0277373   -1.0070558  0.072449794   -2.0277373    1.0206815  1700155 
  521000    1.0020404   -2.0281615   -2.0281615   -1.0069371   0.07252087   -2.0281615    1.0212245  1700128 
  522000    1.0017788   -2.0282613   -2.0282613   -1.0072872  0.075752808   -2.0282613    1.0209741  1700101 
  523000    1.0021527   -2.0281037   -2.0281037   -1.0067324  0.073162108   -2.0281037    1.0213714  1700074 
  524000    1.0021551   -2.0281543   -2.0281543   -1.0067643  0.073623642   -2.0281543      1.02139  1700047 
  525000     1.000562   -2.0267719   -2.0267719   -1.0069894  0.073361049   -2.0267719    1.0197825  1700020 
  526000    1.0007749   -2.0273213   -2.0273213   -1.0073056  0.071717051   -2.0273213    1.0200157  1699993 
  527000    1.0008827   -2.0274457   -2.0274457   -1.0073038  0.073910242   -2.0274457    1.0201419  1699966 
  528000    1.0000245   -2.0257236   -2.0257236   -1.0064403  0.072209266   -2.0257236    1.0192833  1699939 
  529000    1.0015547   -2.0278411   -2.0278411   -1.0069819  0.071233765   -2.0278411    1.0208592  1699912 
  530000    1.0003743   -2.0264647   -2.0264647   -1.0067925  0.076959082   -2.0264647    1.0196722  1699885 
  531000    1.0009435   -2.0269739   -2.0269739   -1.0067052  0.073660777   -2.0269739    1.0202686  1699858 
  532000    1.0015917    -2.028121    -2.028121   -1.0071755  0.071219819    -2.028121    1.0209456  1699831 
  533000    1.0008561   -2.0268638   -2.0268638   -1.0066519  0.071076787   -2.0268638    1.0202119  1699804 
  534000    1.0004532   -2.0265251   -2.0265251   -1.0067077  0.071363304   -2.0265251    1.0198174  1699777 
  535000    1.0017099   -2.0277687   -2.0277687   -1.0066541  0.072515981   -2.0277687    1.0211147  1699750 
  536000    1.0009173   -2.0267886   -2.0267886   -1.0064656  0.073427562   -2.0267886     1.020323  1699723 
  537000    1.0014854    -2.027688    -2.027688   -1.0067697  0.072747613    -2.027688    1.0209183  1699696 
  538000     1.001025   -2.0272104   -2.0272104   -1.0067453  0.074030023   -2.0272104    1.0204651  1699669 
  539000    1.0010373   -2.0272705   -2.0272705   -1.0067766  0.070944005   -2.0272705    1.0204939  1699642 
  540000     1.000907   -2.0270104   -2.0270104   -1.0066332  0.072574511   -2.0270104    1.0203773  1699615 
  541000    1.0005708   -2.0272243   -2.0272243   -1.0071735  0.072048901   -2.0272243    1.0200508  1699588 
  542000   0.99971439   -2.0267251   -2.0267251   -1.0075313  0.073135471   -2.0267251    1.0191939  1699561 
  543000    1.0010579   -2.0281948   -2.0281948    -1.007615  0.073010723   -2.0281948    1.0205798  1699534 
  544000    1.0006279   -2.0276807   -2.0276807   -1.0075232  0.072616589   -2.0276807    1.0201575  1699507 
  545000    1.0004127   -2.0272827   -2.0272827   -1.0073283   0.07272612   -2.0272827    1.0199544  1699480 
  546000    1.0002758   -2.0270198   -2.0270198   -1.0071888   0.07167645   -2.0270198     1.019831  1699453 
  547000    1.0003667   -2.0270827   -2.0270827   -1.0071428  0.074975668   -2.0270827    1.0199399  1699426 
  548000    1.0008562   -2.0276062   -2.0276062    -1.007151  0.075677153   -2.0276062    1.0204552  1699399 
  549000    1.0014667   -2.0275573   -2.0275573   -1.0064634  0.073387775   -2.0275573    1.0210939  1699372 
  550000     1.002314   -2.0281812   -2.0281812   -1.0062071  0.074586211   -2.0281812    1.0219741  1699345 
  551000    1.0016435   -2.0277187   -2.0277187   -1.0064121  0.073284066   -2.0277187    1.0213066  1699318 
  552000    1.0000297   -2.0264324   -2.0264324    -1.006755   0.07323946   -2.0264324    1.0196773  1699291 
  553000    1.0003938   -2.0267991   -2.0267991   -1.0067343  0.074919878   -2.0267991    1.0200648  1699264 
  554000   0.99977814   -2.0266166   -2.0266166   -1.0071634  0.072623567   -2.0266166    1.0194532  1699237 
  555000    1.0007368   -2.0271806   -2.0271806   -1.0067331  0.072789427   -2.0271806    1.0204475  1699209 
  556000    1.0006765   -2.0268471   -2.0268471   -1.0064448  0.073011922   -2.0268471    1.0204023  1699182 
  557000    1.0001303   -2.0264204   -2.0264204   -1.0065588  0.072966136   -2.0264204    1.0198615  1699155 
  558000    1.0015899   -2.0279474   -2.0279474   -1.0065813  0.071030336   -2.0279474    1.0213661  1699128 
  559000   0.99938075   -2.0256333   -2.0256333   -1.0065037  0.069880601   -2.0256333    1.0191295  1699101 
  560000    1.0002467    -2.026258    -2.026258   -1.0062291  0.071064919    -2.026258    1.0200288  1699074 
  561000     1.001073    -2.026944    -2.026944   -1.0060563  0.068463609    -2.026944    1.0208877  1699047 
  562000    1.0003081   -2.0256892   -2.0256892   -1.0055654  0.074009145   -2.0256892    1.0201239  1699020 
  563000    1.0007075   -2.0264341   -2.0264341   -1.0058868   0.07427836   -2.0264341    1.0205473  1698993 
  564000    1.0009872   -2.0267607   -2.0267607   -1.0059118  0.073515874   -2.0267607    1.0208488  1698966 
  565000    1.0013109   -2.0270057   -2.0270057   -1.0058105  0.072687816   -2.0270057    1.0211952  1698939 
  566000    1.0006537    -2.026456    -2.026456   -1.0059149  0.073384728    -2.026456    1.0205412  1698912 
  567000   0.99986011   -2.0257907   -2.0257907   -1.0060427  0.072655053   -2.0257907     1.019748  1698885 
  568000    1.0011401    -2.026838    -2.026838   -1.0057683  0.070278559    -2.026838    1.0210697  1698858 
  569000    1.0010616    -2.027051    -2.027051   -1.0060451  0.065703445    -2.027051    1.0210059  1698831 
  570000    1.0000531   -2.0257957   -2.0257957   -1.0058022  0.071409089   -2.0257957    1.0199935  1698804 
  571000   0.99962289   -2.0252018   -2.0252018   -1.0056309  0.071860033   -2.0252018    1.0195709  1698777 
  572000    1.0003213   -2.0257461   -2.0257461   -1.0054466  0.072743521   -2.0257461    1.0202995  1698750 
  573000    0.9993787   -2.0251097   -2.0251097   -1.0057555  0.076948367   -2.0251097    1.0193542  1698723 
  574000   0.99960304   -2.0250318   -2.0250318   -1.0054325  0.070303273   -2.0250318    1.0195993  1698696 
  575000   0.99990548   -2.0253298   -2.0253298   -1.0054058  0.070161057   -2.0253298     1.019924  1698669 
  576000    1.0005053   -2.0252668   -2.0252668   -1.0047148  0.074659567   -2.0252668     1.020552  1698642 
  577000   0.99978269   -2.0246084   -2.0246084   -1.0047773  0.074395145   -2.0246084    1.0198311  1698615 
  578000    1.0006185   -2.0256144   -2.0256144   -1.0049144  0.072715769   -2.0256144       1.0207  1698588 
  579000    1.0006195   -2.0257896   -2.0257896   -1.0050724  0.072443521   -2.0257896    1.0207171  1698561 
  580000    1.0001861     -2.02552     -2.02552   -1.0052287  0.072798578     -2.02552    1.0202913  1698534 
  581000    1.0000868   -2.0258318   -2.0258318   -1.0056256  0.071148591   -2.0258318    1.0202062  1698507 
  582000    1.0000928   -2.0254592   -2.0254592   -1.0052306  0.072630113   -2.0254592    1.0202285  1698480 
  583000    1.0000385   -2.0254054   -2.0254054    -1.005216  0.073885702   -2.0254054    1.0201894  1698453 
  584000   0.99983246   -2.0249978   -2.0249978   -1.0050024  0.070101718   -2.0249978    1.0199954  1698426 
  585000    1.0001521   -2.0250002   -2.0250002   -1.0046625  0.069778647   -2.0250002    1.0203377  1698399 
  586000   0.99965547   -2.0243078   -2.0243078   -1.0044605  0.072884779   -2.0243078    1.0198473  1698372 
  587000    1.0002193   -2.0244999   -2.0244999   -1.0040612  0.070059917   -2.0244999    1.0204387  1698345 
  588000   0.99984252   -2.0236824   -2.0236824   -1.0036119  0.074222736   -2.0236824    1.0200705  1698318 
  589000   0.99894469   -2.0232145   -2.0232145   -1.0040438  0.074635023   -2.0232145    1.0191707  1698291 
  590000   0.99884958   -2.0232259   -2.0232259   -1.0041359  0.068981943   -2.0232259    1.0190899  1698264 
  591000   0.99989596     -2.02417     -2.02417   -1.0039963  0.068164352     -2.02417    1.0201737  1698237 
  592000    1.0000676     -2.02449     -2.02449   -1.0041244  0.073813392     -2.02449    1.0203656  1698209 
  593000    1.0005524   -2.0246668   -2.0246668   -1.0037903  0.069116309   -2.0246668    1.0208765  1698182 
  594000   0.99991635    -2.023648    -2.023648   -1.0034042  0.070448439    -2.023648    1.0202438  1698155 
  595000   0.99975287    -2.023397    -2.023397   -1.0033038  0.074095521    -2.023397    1.0200932  1698128 
  596000    1.0008354   -2.0242354   -2.0242354   -1.0030214  0.072135258   -2.0242354     1.021214  1698101 
  597000    1.0015628   -2.0251797   -2.0251797   -1.0032073  0.073598366   -2.0251797    1.0219724  1698074 
  598000    1.0003034   -2.0240819   -2.0240819   -1.0033783  0.074285503   -2.0240819    1.0207036  1698047 
  599000     1.001423   -2.0247691   -2.0247691   -1.0029068  0.074122755   -2.0247691    1.0218623  1698020 
  600000    1.0013857   -2.0249489   -2.0249489   -1.0031084  0.072054265   -2.0249489    1.0218405  1697993 
  601000   0.99959472   -2.0233276   -2.0233276   -1.0032985  0.073535451   -2.0233276    1.0200291  1697966 
  602000    1.0000705   -2.0238595   -2.0238595   -1.0033287  0.072224786   -2.0238595    1.0205309  1697939 
  603000   0.99959044    -2.023043    -2.023043   -1.0029858   0.07266955    -2.023043    1.0200572  1697912 
  604000   0.99919441   -2.0230013   -2.0230013    -1.003332  0.070633261   -2.0230013    1.0196693  1697885 
  605000   0.99959197   -2.0226841   -2.0226841   -1.0025929  0.074608618   -2.0226841    1.0200912  1697858 
  606000   0.99928918   -2.0228167   -2.0228167   -1.0030182  0.073039848   -2.0228167    1.0197984  1697831 
  607000   0.99944393   -2.0227377   -2.0227377   -1.0027651  0.073981551   -2.0227377    1.0199726  1697804 
  608000   0.99945559    -2.022672    -2.022672   -1.0026714  0.070662539    -2.022672    1.0200007  1697777 
  609000    1.0013356   -2.0239447   -2.0239447   -1.0020092  0.070458066   -2.0239447    1.0219356  1697750 
  610000    1.0014111    -2.024425    -2.024425   -1.0023961  0.071849623    -2.024425    1.0220289  1697723 
  611000    1.0000364   -2.0228582   -2.0228582    -1.002216  0.072770155   -2.0228582    1.0206421  1697696 
  612000    1.0009612   -2.0239705   -2.0239705   -1.0023682  0.074529226   -2.0239705    1.0216023  1697669 
  613000    1.0004561   -2.0236276   -2.0236276   -1.0025246   0.07350162   -2.0236276    1.0211029  1697642 
  614000   0.99944655   -2.0229854   -2.0229854   -1.0028966  0.073766416   -2.0229854    1.0200888  1697615 
  615000   0.99978998   -2.0231432   -2.0231432   -1.0026876  0.072319909   -2.0231432    1.0204556  1697588 
  616000   0.99823628    -2.021762    -2.021762   -1.0028761  0.073224066    -2.021762    1.0188859  1697561 
  617000   0.99868879   -2.0221153   -2.0221153   -1.0027513  0.068456731   -2.0221153     1.019364  1697534 
  618000   0.99853357   -2.0217684   -2.0217684   -1.0025466  0.069482571   -2.0217684    1.0192218  1697507 
  619000   0.99903378   -2.0224321   -2.0224321   -1.0026835  0.070021061   -2.0224321    1.0197486  1697480 
  620000   0.99968884   -2.0230161   -2.0230161   -1.0025826  0.072318428   -2.0230161    1.0204335  1697453 
  621000   0.99908698   -2.0228813   -2.0228813   -1.0030459  0.070025507   -2.0228813    1.0198353  1697426 
  622000   0.99981446   -2.0240545   -2.0240545   -1.0034603  0.074470091   -2.0240545    1.0205942  1697399 
  623000   0.99901092   -2.0234058   -2.0234058   -1.0036156  0.071085919   -2.0234058    1.0197902  1697372 
  624000   0.99989363   -2.0240406   -2.0240406   -1.0033332  0.072044094   -2.0240406    1.0207075  1697345 
  625000   0.99959234   -2.0238479   -2.0238479   -1.0034318  0.072376479   -2.0238479    1.0204161  1697318 
  626000   0.99978913   -2.0236594   -2.0236594   -1.0030261  0.072467763   -2.0236594    1.0206333  1697291 
  627000   0.99790967   -2.0221479   -2.0221479    -1.003417  0.074824153   -2.0221479    1.0187308  1697264 
  628000   0.99798816   -2.0220328   -2.0220328   -1.0032057  0.074926179   -2.0220328    1.0188271  1697237 
  629000   0.99841796   -2.0231297   -2.0231297   -1.0038469  0.066622303   -2.0231297    1.0192827  1697209 
  630000   0.99826679   -2.0228789   -2.0228789   -1.0037343  0.071978312   -2.0228789    1.0191446  1697182 
  631000   0.99871222   -2.0234128   -2.0234128   -1.0037972  0.068959774   -2.0234128    1.0196156  1697155 
  632000   0.99869335   -2.0231992   -2.0231992   -1.0035867  0.072308684   -2.0231992    1.0196125  1697128 
  633000   0.99792041   -2.0225796   -2.0225796     -1.00374  0.071525658   -2.0225796    1.0188396  1697101 
  634000   0.99917819   -2.0239955   -2.0239955   -1.0038555  0.076673368   -2.0239955      1.02014  1697074 
  635000   0.99903696   -2.0233989   -2.0233989   -1.0033868  0.072933502   -2.0233989     1.020012  1697047 
  636000   0.99841429    -2.023241    -2.023241   -1.0038485  0.074077154    -2.023241    1.0193925  1697020 
  637000   0.99894328   -2.0226651   -2.0226651   -1.0027163  0.072975385   -2.0226651    1.0199488  1696993 
  638000   0.99957894   -2.0228756   -2.0228756   -1.0022615  0.070802993   -2.0228756    1.0206141  1696966 
  639000   0.99964303   -2.0230757   -2.0230757   -1.0023799  0.070443032   -2.0230757    1.0206958  1696939 
  640000   0.99997944   -2.0231927   -2.0231927   -1.0021371  0.073518087   -2.0231927    1.0210555  1696912 
  641000   0.99977877   -2.0233144   -2.0233144   -1.0024475  0.073194888   -2.0233144    1.0208669  1696885 
  642000   0.99972393   -2.0237902   -2.0237902   -1.0029631  0.076002449   -2.0237902    1.0208271  1696858 
  643000   0.99899603   -2.0227273   -2.0227273   -1.0026272  0.075163076   -2.0227273    1.0201001  1696831 
  644000   0.99949051   -2.0229835   -2.0229835   -1.0023623  0.071467763   -2.0229835    1.0206213  1696804 
  645000    0.9998215     -2.02294     -2.02294   -1.0019646   0.07214065     -2.02294    1.0209755  1696777 
  646000    0.9988678   -2.0221555   -2.0221555   -1.0021376   0.07553924   -2.0221555    1.0200178  1696750 
  647000    0.9997092   -2.0227378   -2.0227378   -1.0018445  0.076043673   -2.0227378    1.0208933  1696723 
  648000   0.99845301   -2.0218176   -2.0218176   -1.0021909  0.072812029   -2.0218176    1.0196267  1696696 
  649000   0.99863207   -2.0223356   -2.0223356   -1.0025098  0.073072934   -2.0223356    1.0198258  1696669 
  650000   0.99898908   -2.0228713   -2.0228713   -1.0026647  0.076555293   -2.0228713    1.0202066  1696642 
  651000   0.99946171   -2.0229987   -2.0229987   -1.0022932  0.073698883   -2.0229987    1.0207055  1696615 
  652000   0.99942558   -2.0234761   -2.0234761   -1.0027912  0.072761978   -2.0234761    1.0206849  1696588 
  653000   0.99954433    -2.023324    -2.023324   -1.0025016  0.074506847    -2.023324    1.0208224  1696561 
  654000    0.9989025   -2.0230035   -2.0230035   -1.0028204  0.076266555   -2.0230035    1.0201831  1696534 
  655000   0.99898475   -2.0230262   -2.0230262   -1.0027428  0.076720916   -2.0230262    1.0202834  1696507 
[...]
29832000   0.31713419  -0.71985136  -0.71985136  -0.11464427  0.060522214  -0.71985136   0.60520709   907939 
29833000   0.31757305  -0.72117449  -0.72117449  -0.11511188   0.05822122  -0.72117449   0.60606261   907912 
29834000   0.31759624  -0.72044089  -0.72044089  -0.11431599  0.059052328  -0.72044089    0.6061249   907885 
29835000   0.31717929  -0.71964857  -0.71964857  -0.11430142   0.05824426  -0.71964857   0.60534715   907858 
29836000   0.31704121  -0.71923186  -0.71923186  -0.11413024  0.059790686  -0.71923186   0.60510162   907831 
29837000   0.31693881  -0.71842115  -0.71842115  -0.11349697  0.059277999  -0.71842115   0.60492418   907804 
29838000   0.31703468   -0.7193264   -0.7193264  -0.11420124  0.060882955   -0.7193264   0.60512516   907777 
29839000   0.31724081  -0.71863564  -0.71863564  -0.11309904   0.05954868  -0.71863564    0.6055366   907750 
29840000   0.31710339  -0.71822736  -0.71822736  -0.11293504  0.061087178  -0.71822736   0.60529232   907723 
29841000   0.31725878  -0.71865211  -0.71865211  -0.11304519  0.058050212  -0.71865211   0.60560693   907696 
29842000   0.31709484  -0.71768826  -0.71768826  -0.11237625  0.061026661  -0.71768826   0.60531201   907669 
29843000   0.31682527  -0.71749814  -0.71749814  -0.11268273  0.057224303  -0.71749814    0.6048154   907642 
29844000    0.3171991  -0.71820712  -0.71820712  -0.11266006  0.059363051  -0.71820712   0.60554706   907615 
29845000   0.31761013  -0.71876891  -0.71876891  -0.11241915  0.057911425  -0.71876891   0.60634976   907588 
29846000   0.31679767  -0.71702768  -0.71702768  -0.11221099  0.061159927  -0.71702768   0.60481669   907561 
29847000   0.31709575   -0.7178908   -0.7178908  -0.11248702  0.059359491   -0.7178908   0.60540378   907534 
29848000   0.31701004  -0.71796682  -0.71796682  -0.11270867  0.058488592  -0.71796682   0.60525815   907507 
29849000   0.31683673  -0.71785809  -0.71785809  -0.11291285  0.058448948  -0.71785809   0.60494525   907480 
29850000   0.31686436  -0.71857295  -0.71857295  -0.11355693  0.061019844  -0.71857295   0.60501601   907453 
29851000   0.31642314  -0.71764842  -0.71764842  -0.11345689  0.060168377  -0.71764842   0.60419153   907426 
29852000   0.31704881  -0.71813055  -0.71813055  -0.11272633  0.059356371  -0.71813055   0.60540421   907399 
29853000   0.31631525  -0.71676589  -0.71676589  -0.11274442  0.059672862  -0.71676589   0.60402147   907372 
29854000   0.31670198  -0.71720302  -0.71720302  -0.11242508  0.058722271  -0.71720302   0.60477794   907345 
29855000   0.31694808  -0.71729166  -0.71729166  -0.11202575  0.059958677  -0.71729166   0.60526591   907318 
29856000   0.31646379  -0.71733393  -0.71733393  -0.11297487  0.057983132  -0.71733393   0.60435906   907291 
29857000    0.3165484  -0.71745888  -0.71745888  -0.11292024  0.059597801  -0.71745888   0.60453863   907264 
29858000   0.31686586  -0.71795312  -0.71795312   -0.1127902  0.058340006  -0.71795312   0.60516292   907237 
29859000   0.31681172  -0.71724967  -0.71724967  -0.11217148  0.061805676  -0.71724967    0.6050782   907209 
29860000   0.31680792  -0.71755952  -0.71755952  -0.11247059  0.058566301  -0.71755952   0.60508893   907182 
29861000   0.31633601  -0.71573646  -0.71573646  -0.11153086  0.057920459  -0.71573646   0.60420559   907155 
29862000   0.31600738  -0.71609447  -0.71609447  -0.11249859  0.058355987  -0.71609447   0.60359587   907128 
29863000   0.31554178  -0.71600552  -0.71600552  -0.11328103  0.058745869  -0.71600552   0.60272449   907101 
29864000   0.31656878  -0.71670472  -0.71670472  -0.11200055  0.059845087  -0.71670472   0.60470418   907074 
29865000    0.3164759  -0.71643052  -0.71643052  -0.11188577  0.059961036  -0.71643052   0.60454476   907047 
29866000     0.316269  -0.71649413  -0.71649413  -0.11232662  0.060048347  -0.71649413   0.60416752   907020 
29867000   0.31630839  -0.71737683  -0.71737683  -0.11311607    0.0609673  -0.71737683   0.60426076   906993 
29868000   0.31623361  -0.71701854  -0.71701854  -0.11288267     0.060512  -0.71701854   0.60413587   906966 
29869000   0.31640523  -0.71746068  -0.71746068  -0.11297894   0.05886092  -0.71746068   0.60448174   906939 
29870000   0.31581671  -0.71630675  -0.71630675   -0.1129314  0.060064933  -0.71630675   0.60337535   906912 
29871000    0.3164899  -0.71686012  -0.71686012  -0.11218062  0.059597459  -0.71686012   0.60467951   906885 
29872000   0.31592304   -0.7154769   -0.7154769  -0.11186246  0.060044105   -0.7154769   0.60361444   906858 
29873000   0.31653815  -0.71619671  -0.71619671  -0.11138901  0.060346068  -0.71619671    0.6048077   906831 
29874000   0.31658628  -0.71612329  -0.71612329  -0.11120561  0.060475184  -0.71612329   0.60491767   906804 
29875000   0.31658042   -0.7160624   -0.7160624   -0.1111379   0.05940423   -0.7160624    0.6049245   906777 
29876000   0.31545846  -0.71510822  -0.71510822  -0.11230964  0.058649948  -0.71510822   0.60279858   906750 
29877000     0.315653  -0.71518182  -0.71518182  -0.11199354  0.058190888  -0.71518182   0.60318828   906723 
29878000   0.31604219  -0.71547262  -0.71547262  -0.11152263  0.057837951  -0.71547262   0.60394999   906696 
29879000   0.31617022   -0.7146727   -0.7146727  -0.11046007  0.058122302   -0.7146727   0.60421263   906669 
29880000   0.31629812  -0.71513152  -0.71513152  -0.11065647  0.060245656  -0.71513152   0.60447505   906642 
29881000   0.31601486  -0.71523328  -0.71523328  -0.11128157  0.059190887  -0.71523328   0.60395171   906615 
29882000   0.31618908  -0.71441362  -0.71441362  -0.11011095  0.058983634  -0.71441362   0.60430267   906588 
29883000   0.31584165  -0.71395026  -0.71395026  -0.11029362  0.060226981  -0.71395026   0.60365664   906561 
29884000   0.31615197   -0.7142488   -0.7142488  -0.10998106  0.059485103   -0.7142488   0.60426774   906534 
29885000   0.31595719  -0.71435235  -0.71435235  -0.11043892  0.059878561  -0.71435235   0.60391343   906507 
29886000   0.31611197  -0.71427191  -0.71427191  -0.11004464  0.059199205  -0.71427191   0.60422727   906480 
29887000   0.31546637  -0.71326974  -0.71326974  -0.11025852  0.059838852  -0.71326974   0.60301121   906453 
29888000   0.31611897   -0.7148514   -0.7148514  -0.11057474  0.057285129   -0.7148514   0.60427666   906426 
29889000   0.31599077  -0.71461399  -0.71461399  -0.11056441  0.059916233  -0.71461399   0.60404959   906399 
29890000   0.31574645  -0.71415663  -0.71415663  -0.11055611  0.059763238  -0.71415663   0.60360051   906372 
29891000   0.31587374  -0.71462373  -0.71462373  -0.11076189  0.058921508  -0.71462373   0.60386184   906345 
29892000   0.31574676  -0.71404762  -0.71404762  -0.11041055  0.060144748  -0.71404762   0.60363707   906318 
29893000   0.31583096  -0.71430467  -0.71430467  -0.11048864  0.060269227  -0.71430467   0.60381603   906291 
29894000    0.3157446  -0.71449134  -0.71449134  -0.11082241   0.05915226  -0.71449134   0.60366892   906264 
29895000   0.31564397  -0.71433753  -0.71433753  -0.11084304  0.059964337  -0.71433753   0.60349449   906237 
29896000   0.31532365   -0.7143888   -0.7143888   -0.1114881   0.05967652   -0.7143888    0.6029007   906209 
29897000     0.315195  -0.71333027  -0.71333027  -0.11065759   0.05931032  -0.71333027   0.60267267   906182 
29898000   0.31531954  -0.71365066  -0.71365066   -0.1107219  0.060398046  -0.71365066   0.60292876   906155 
29899000   0.31511211  -0.71337925  -0.71337925  -0.11082917  0.060940255  -0.71337925   0.60255008   906128 
29900000    0.3154685  -0.71386364  -0.71386364  -0.11061409  0.059206774  -0.71386364   0.60324955   906101 
29901000   0.31515445  -0.71313541  -0.71313541  -0.11046845  0.059271623  -0.71313541   0.60266696   906074 
29902000   0.31525092  -0.71318885  -0.71318885  -0.11031945  0.060312978  -0.71318885   0.60286941   906047 
29903000   0.31576011  -0.71412297  -0.71412297  -0.11026182  0.061096299  -0.71412297   0.60386116   906020 
29904000   0.31563988  -0.71412233  -0.71412233  -0.11047312  0.059006527  -0.71412233   0.60364921   905993 
29905000    0.3155904  -0.71407984  -0.71407984  -0.11050727  0.059943736  -0.71407984   0.60357257   905966 
29906000   0.31607871  -0.71448555  -0.71448555  -0.10996106  0.060124482  -0.71448555   0.60452449   905939 
29907000   0.31568105   -0.7149566   -0.7149566  -0.11117467  0.058874401   -0.7149566   0.60378193   905912 
29908000    0.3155924  -0.71496418  -0.71496418  -0.11133381   0.05842048  -0.71496418   0.60363037   905885 
29909000   0.31540154  -0.71471208  -0.71471208  -0.11142879  0.058737244  -0.71471208   0.60328329   905858 
29910000   0.31504742  -0.71383578  -0.71383578  -0.11121187  0.056245114  -0.71383578   0.60262391   905831 
29911000   0.31466029  -0.71349384  -0.71349384   -0.1115925  0.057893583  -0.71349384   0.60190134   905804 
29912000   0.31423693  -0.71289169  -0.71289169  -0.11178225  0.059805624  -0.71289169   0.60110944   905777 
29913000   0.31456506  -0.71338624  -0.71338624  -0.11163117  0.060147259  -0.71338624   0.60175506   905750 
29914000   0.31404189  -0.71278462  -0.71278462  -0.11201247  0.059832842  -0.71278462   0.60077216   905723 
29915000   0.31460878  -0.71265413  -0.71265413  -0.11077955  0.059245596  -0.71265413   0.60187458   905696 
29916000    0.3152446  -0.71358119  -0.71358119  -0.11047226  0.058075796  -0.71358119   0.60310893   905669 
29917000   0.31484165  -0.71280718  -0.71280718  -0.11045118  0.061647148  -0.71280718     0.602356   905642 
29918000   0.31538868  -0.71383497  -0.71383497   -0.1104144  0.059944951  -0.71383497   0.60342057   905615 
29919000   0.31502905  -0.71281854  -0.71281854  -0.11006808  0.057924401  -0.71281854   0.60275046   905588 
29920000   0.31485026  -0.71230869  -0.71230869  -0.10988236  0.058103431  -0.71230869   0.60242634   905561 
29921000   0.31538104  -0.71240503  -0.71240503  -0.10894511  0.061363866  -0.71240503   0.60345992   905534 
29922000   0.31486989  -0.71138296  -0.71138296  -0.10888312   0.06020977  -0.71138296   0.60249984   905507 
29923000   0.31488612   -0.7120141   -0.7120141  -0.10946525  0.059073911   -0.7120141   0.60254886   905480 
29924000   0.31508019  -0.71052222  -0.71052222  -0.10758401   0.05987389  -0.71052222    0.6029382   905453 
29925000   0.31511147  -0.71048228  -0.71048228  -0.10746625  0.060006608  -0.71048228   0.60301603   905426 
29926000   0.31592573   -0.7108367   -0.7108367  -0.10624442   0.05902544   -0.7108367   0.60459229   905399 
29927000   0.31505859  -0.70974303  -0.70974303  -0.10679223   0.05954159  -0.70974303   0.60295081   905372 
29928000   0.31476216  -0.70941047  -0.70941047  -0.10700901  0.058551036  -0.70941047   0.60240146   905345 
29929000   0.31504352  -0.70961897  -0.70961897  -0.10666104  0.056170483  -0.70961897   0.60295793   905318 
29930000   0.31445004  -0.70812926  -0.70812926  -0.10628923  0.057453004  -0.70812926   0.60184003   905291 
29931000   0.31478857  -0.70880874  -0.70880874  -0.10630283  0.059218398  -0.70880874   0.60250591   905264 
29932000   0.31516182  -0.70854375  -0.70854375  -0.10530544  0.059603663  -0.70854375   0.60323831   905237 
29933000   0.31489184  -0.70777095  -0.70777095  -0.10503076  0.058133042  -0.70777095   0.60274019   905209 
29934000   0.31510857  -0.70838978  -0.70838978  -0.10521675  0.059770783  -0.70838978   0.60317303   905182 
29935000   0.31479031  -0.70751724  -0.70751724  -0.10493543  0.058501806  -0.70751724   0.60258181   905155 
29936000   0.31491095  -0.70822187  -0.70822187  -0.10539115  0.061005411  -0.70822187   0.60283072   905128 
29937000   0.31444222  -0.70754588  -0.70754588   -0.1055945  0.056986789  -0.70754588   0.60195139   905101 
29938000   0.31482771  -0.70882685  -0.70882685  -0.10611952  0.058152994  -0.70882685   0.60270732   905074 
29939000   0.31486747  -0.70894734  -0.70894734  -0.10614592  0.059836986  -0.70894734   0.60280142   905047 
29940000   0.31485804  -0.70913676  -0.70913676  -0.10633541  0.059071334  -0.70913676   0.60280135   905020 
29941000   0.31487154  -0.70895646  -0.70895646  -0.10611128  0.057633477  -0.70895646   0.60284518   904993 
29942000   0.31542227  -0.70966569  -0.70966569  -0.10574806  0.061136094  -0.70966569   0.60391763   904966 
29943000   0.31493826  -0.70945501  -0.70945501   -0.1064461  0.059410604  -0.70945501   0.60300891   904939 
29944000   0.31475167  -0.70878967  -0.70878967  -0.10612004  0.060215605  -0.70878967   0.60266963   904912 
29945000   0.31552525  -0.70957139  -0.70957139  -0.10540253   0.06007884  -0.70957139   0.60416886   904885 
29946000    0.3140293  -0.70774892  -0.70774892  -0.10642655  0.058559482  -0.70774892   0.60132236   904858 
29947000    0.3153078  -0.70844503  -0.70844503   -0.1046565  0.059504279  -0.70844503   0.60378853   904831 
29948000    0.3150001  -0.70770107  -0.70770107  -0.10448377  0.059092378  -0.70770107    0.6032173   904804 
29949000   0.31409552  -0.70700111  -0.70700111   -0.1054981  0.059029748  -0.70700111   0.60150301   904777 
29950000   0.31441945  -0.70744888  -0.70744888  -0.10530757  0.060255838  -0.70744888   0.60214131   904750 
29951000   0.31432985  -0.70703347  -0.70703347  -0.10504579  0.058257154  -0.70703347   0.60198768   904723 
29952000   0.31420686  -0.70616995  -0.70616995  -0.10439986  0.058600281  -0.70616995   0.60177009   904696 
29953000   0.31474441  -0.70728386  -0.70728386  -0.10446625   0.06068541  -0.70728386   0.60281761   904669 
29954000   0.31468382  -0.70716672  -0.70716672  -0.10444716  0.060362023  -0.70716672   0.60271955   904642 
29955000   0.31484524  -0.70713987  -0.70713987  -0.10409315  0.058610865  -0.70713987   0.60304672   904615 
29956000   0.31447967  -0.70603628  -0.70603628  -0.10367177  0.059196545  -0.70603628    0.6023645   904588 
29957000   0.31447646  -0.70616382  -0.70616382  -0.10378749  0.058784102  -0.70616382   0.60237633   904561 
29958000    0.3145318  -0.70590696  -0.70590696  -0.10340665  0.059735918  -0.70590696    0.6025003   904534 
29959000    0.3144612  -0.70603564  -0.70603564  -0.10365258  0.060887502  -0.70603564   0.60238306   904507 
29960000   0.31478009   -0.7062381   -0.7062381  -0.10322618  0.059312585   -0.7062381   0.60301191   904480 
29961000   0.31449851  -0.70551848  -0.70551848  -0.10302799  0.060109593  -0.70551848   0.60249049   904453 
29962000   0.31397784  -0.70509717  -0.70509717  -0.10358617   0.06208845  -0.70509717     0.601511   904426 
29963000   0.31379372  -0.70518461  -0.70518461  -0.10400841  0.059799357  -0.70518461    0.6011762   904399 
29964000   0.31383128  -0.70489935  -0.70489935  -0.10363323  0.058821536  -0.70489935   0.60126612   904372 
29965000   0.31415779  -0.70553377  -0.70553377  -0.10362412  0.060349365  -0.70553377   0.60190965   904345 
29966000   0.31429184  -0.70565924  -0.70565924  -0.10347478  0.058651864  -0.70565924   0.60218446   904318 
29967000   0.31437742  -0.70546029  -0.70546029  -0.10309388  0.059284816  -0.70546029   0.60236641   904291 
29968000   0.31366714  -0.70383519  -0.70383519  -0.10281176   0.05968372  -0.70383519   0.60102343   904264 
29969000   0.31427917  -0.70541753  -0.70541753  -0.10320342  0.058425998  -0.70541753   0.60221412   904237 
29970000   0.31403146  -0.70480063  -0.70480063  -0.10304254  0.058761945  -0.70480063    0.6017581   904209 
29971000   0.31442417  -0.70501827  -0.70501827  -0.10248966  0.059764823  -0.70501827   0.60252861   904182 
29972000   0.31399258  -0.70488552  -0.70488552  -0.10316599   0.05948711  -0.70488552   0.60171953   904155 
29973000   0.31403382  -0.70403419  -0.70403419  -0.10221766  0.060027774  -0.70403419   0.60181653   904128 
29974000   0.31381826  -0.70414367  -0.70414367  -0.10272229  0.060903674  -0.70414367   0.60142138   904101 
29975000   0.31431643  -0.70400781  -0.70400781   -0.1016137  0.059265891  -0.70400781    0.6023941   904074 
29976000   0.31419976  -0.70411039  -0.70411039  -0.10192189   0.05754653  -0.70411039    0.6021885   904047 
29977000   0.31377924  -0.70343937  -0.70343937  -0.10203887  0.058515865  -0.70343937    0.6014005   904020 
29978000    0.3138157  -0.70350267  -0.70350267  -0.10201432  0.059569488  -0.70350267   0.60148835   903993 
29979000   0.31360846   -0.7031273   -0.7031273  -0.10201822  0.058967513   -0.7031273   0.60110908   903966 
29980000   0.31396569  -0.70337714  -0.70337714  -0.10156538  0.058774483  -0.70337714   0.60181176   903939 
29981000   0.31378192  -0.70255302  -0.70255302  -0.10107553  0.059725057  -0.70255302   0.60147749   903912 
29982000   0.31375996  -0.70346716  -0.70346716  -0.10201381  0.060632764  -0.70346716   0.60145335   903885 
29983000   0.31354507  -0.70324266  -0.70324266  -0.10218328  0.059467072  -0.70324266   0.60105938   903858 
29984000   0.31389165  -0.70434762  -0.70434762  -0.10260587  0.059070221  -0.70434762   0.60174175   903831 
29985000   0.31381123  -0.70418071  -0.70418071  -0.10257516  0.059354759  -0.70418071   0.60160555   903804 
29986000   0.31387522  -0.70398858  -0.70398858  -0.10224239  0.058363518  -0.70398858   0.60174619   903777 
29987000   0.31367628  -0.70311421  -0.70311421  -0.10173145  0.059786429  -0.70311421   0.60138276   903750 
29988000   0.31361161  -0.70307603  -0.70307603  -0.10179928  0.058869295  -0.70307603   0.60127675   903723 
29989000    0.3135788  -0.70428245  -0.70428245  -0.10305065  0.059160584  -0.70428245   0.60123179   903696 
29990000   0.31329841  -0.70289247  -0.70289247  -0.10218033  0.060266937  -0.70289247   0.60071215   903669 
29991000   0.31383851  -0.70323077  -0.70323077  -0.10146506  0.057950963  -0.70323077   0.60176571   903642 
29992000   0.31384198  -0.70397612  -0.70397612  -0.10218579  0.060691176  -0.70397612   0.60179034   903615 
29993000   0.31359582  -0.70326792  -0.70326792  -0.10193163  0.060494716  -0.70326792   0.60133629   903588 
29994000   0.31379568  -0.70335908  -0.70335908  -0.10162157  0.058020915  -0.70335908   0.60173751   903561 
29995000   0.31378592  -0.70272101  -0.70272101  -0.10098423  0.059579394  -0.70272101   0.60173678   903534 
29996000   0.31387187  -0.70264324  -0.70264324  -0.10072364  0.057788835  -0.70264324    0.6019196   903507 
29997000   0.31312057  -0.70178326  -0.70178326   -0.1012865  0.059825852  -0.70178326   0.60049676   903480 
29998000   0.31265172  -0.70079624  -0.70079624  -0.10118072  0.058938507  -0.70079624   0.59961552   903453 
29999000    0.3133168  -0.70197125  -0.70197125  -0.10106225  0.061763719  -0.70197125     0.600909   903426 
30000000   0.31373884  -0.70302766  -0.70302766  -0.10129124  0.060697688  -0.70302766   0.60173641   903399 
Loop time of 50455.2 on 768 procs for 30000000 steps with 903399 atoms

Performance: 256861.527 tau/day, 594.587 timesteps/s
86.9% CPU use with 768 MPI tasks x 1 OpenMP threads

MPI task timing breakdown:
Section |  min time  |  avg time  |  max time  |%varavg|  %CPU | %total
-----------------------------------------------------------------------
Pair    | 1802.1     | 7614.6     | 15463      |5057.4 |  90.3 | 15.09
Bond    | 18.979     | 20.105     | 21.363     |   9.6 | 100.0 |  0.04
Neigh   | 5875.4     | 9262.8     | 11354      |1218.4 |  98.3 | 18.36
Comm    | 9395.9     | 16673      | 21900      |2389.4 |  84.1 | 33.04
Output  | 3153.7     | 3159.9     | 3169.3     |   9.3 |  76.2 |  6.26
Modify  | 8657.3     | 12802      | 18607      |2191.1 |  83.9 | 25.37
Other   |            | 923.3      |            |       |       |  1.83

Nlocal:        1176.30 ave        2933 max         224 min
Histogram: 14 73 139 313 151 58 18 0 0 2
Nghost:        3781.77 ave        6185 max         917 min
Histogram: 5 76 42 63 120 134 118 128 59 23
Neighs:        7543.80 ave       37283 max         767 min
Histogram: 543 78 4 14 14 10 6 5 43 51

Total # of neighbors = 5793640
Ave neighs/atom = 6.4131574
Ave special neighs/atom = 0.0000000
Neighbor list builds = 3262701
Dangerous builds = 2422701

Total wall time: 14:01:09
