LAMMPS (24 Dec 2020)
OMP_NUM_THREADS environment is not set. Defaulting to 1 thread. (src/comm.cpp:94)
  using 1 OpenMP thread(s) per MPI task
Created orthogonal box = (0.0000000 0.0000000 0.0000000) to (160.00000 160.00000 160.00000)
  4 by 6 by 8 MPI processor grid
Lattice spacing in x,y,z = 1.0000000 1.0000000 1.0000000
Created 4096000 atoms
  create_atoms CPU = 0.142 seconds
4096000 atoms in group solvent
Reading data file ...
  orthogonal box = (0.0000000 0.0000000 0.0000000) to (160.00000 160.00000 320.00000)
  6 by 4 by 8 MPI processor grid
Finding 1-2 1-3 1-4 neighbors ...
  special bond factors lj:    0        0        0       
  special bond factors coul:  0        0        0       
     0 = max # of 1-2 neighbors
     0 = max # of 1-3 neighbors
     0 = max # of 1-4 neighbors
     1 = max # of special neighbors
  special bonds CPU = 1.402 seconds
  read_data CPU = 1.433 seconds
Balancing ...
Neighbor list info ...
  update every 1 steps, delay 10 steps, check yes
  max neighbors/atom: 2000, page size: 100000
  master list distance cutoff = 2.9
  ghost atom cutoff = 2.9
  binsize = 1.45, bins = 111 111 221
  1 neighbor lists, perpetual/occasional/extra = 1 0 0
  (1) pair lj/cut/opt, perpetual
      attributes: half, newton on
      pair build: half/bin/newton
      stencil: half/bin/3d/newton
      bin: standard
 rebalancing time: 0.058 seconds
  iteration count = 5
  initial/final maximal load/proc = 43200.000 27000.000
  initial/final imbalance factor  = 2.0250000 1.2656250
  x cuts: 0.0000000 0.16666667 0.33333333 0.50000000 0.66666667 0.83333333 1.0000000
  y cuts: 0.0000000 0.25000000 0.50000000 0.75000000 1.0000000
  z cuts: 0.0000000 0.062500000 0.12890625 0.18750000 0.25781250 0.30859375 0.38671875 0.43750000 1.0000000
WARNING: Ignoring 'compress yes' for molecular system (src/delete_atoms.cpp:125)
Deleted 76800 atoms, new total = 4019200
WARNING: Ignoring 'compress yes' for molecular system (src/delete_atoms.cpp:125)
Deleted 25600 atoms, new total = 3993600
New timer settings: style=full  mode=nosync  timeout=off
Setting up Verlet run ...
  Unit style    : lj
  Current step  : 0
  Time step     : 0.0025
Per MPI rank memory allocation (min/avg/max) = 21.58 | 28.12 | 30.30 Mbytes
Step Temp E_pair E_vdwl TotEng Press PotEng KinEng Volume 
       0   0.49997217   -3.3137429   -3.3137429   -2.5637849    8.4475947   -3.3137429   0.74995807      8192000 
    1000    1.2324649   -4.9619743   -4.9619743   -3.1132774    4.2595806   -4.9619743    1.8486969      8192000 
    2000    1.0584999   -5.1814436   -5.1814436   -3.5936941    3.1756669   -5.1814436    1.5877495      8192000 
    3000   0.92142825   -5.3396617   -5.3396617   -3.9575196     2.347351   -5.3396617     1.382142      8192000 
    4000    0.8079516   -5.4393105   -5.4393105   -4.2273834    1.7557951   -5.4393105    1.2119271      8192000 
    5000    0.7231359   -5.5074631   -5.5074631   -4.4227595    1.3222653   -5.5074631    1.0847036      8192000 
    6000   0.66470166   -5.5612488   -5.5612488   -4.5641966   0.97089889   -5.5612488   0.99705225      8192000 
    7000   0.62227856   -5.6016098   -5.6016098   -4.6681922   0.69151823   -5.6016098    0.9334176      8192000 
    8000   0.58940488   -5.6282089   -5.6282089   -4.7441018    0.4812454   -5.6282089    0.8841071      8192000 
    9000   0.56463745   -5.6454299   -5.6454299   -4.7984739   0.33556931   -5.6454299   0.84695597      8192000 
   10000   0.54700741   -5.6572364   -5.6572364   -4.8367255   0.24633665   -5.6572364   0.82051091      8192000 
   11000   0.53426572    -5.664512    -5.664512   -4.8631136   0.19092261    -5.664512   0.80139838      8192000 
   12000   0.52447171   -5.6676447   -5.6676447   -4.8809374   0.14346668   -5.6676447   0.78670736      8192000 
   13000   0.51706725   -5.6676457   -5.6676457    -4.892045   0.10383942   -5.6676457   0.77560068      8192000 
   14000   0.51223543   -5.6658383   -5.6658383   -4.8974854  0.071006883   -5.6658383   0.76835295      8192000 
   15000   0.50856996   -5.6628105   -5.6628105   -4.8999558   0.04572604   -5.6628105   0.76285474      8192000 
   16000   0.50593911   -5.6587905   -5.6587905    -4.899882  0.024937944   -5.6587905   0.75890848      8192000 
   17000   0.50496039   -5.6555939   -5.6555939   -4.8981535 0.0066823098   -5.6555939   0.75744039      8192000 
   18000   0.50479628   -5.6520235   -5.6520235   -4.8948293 -0.0048239919   -5.6520235   0.75719423      8192000 
   19000   0.50431831    -5.648164    -5.648164   -4.8916867 -0.0094068437    -5.648164   0.75647727      8192000 
   20000   0.50431263   -5.6448653   -5.6448653   -4.8883965  -0.01072418   -5.6448653   0.75646876      8192000 
   21000    0.5052945   -5.6428088   -5.6428088   -4.8848672 -0.013149411   -5.6428088   0.75794155      8192000 
   22000   0.50620208   -5.6404957   -5.6404957   -4.8811927 -0.0096942795   -5.6404957   0.75930293      8192000 
   23000   0.50735122   -5.6392016   -5.6392016   -4.8781749 -0.0069743023   -5.6392016   0.76102664      8192000 
   24000   0.50836968   -5.6374985   -5.6374985   -4.8749442 -0.002699562   -5.6374985   0.76255432      8192000 
   25000   0.50918435   -5.6364715   -5.6364715   -4.8726952 0.0023633416   -5.6364715   0.76377633      8192000 
   26000   0.51043741   -5.6360155   -5.6360155   -4.8703596  0.003878377   -5.6360155   0.76565592      8192000 
   27000   0.51078704   -5.6350385   -5.6350385   -4.8688581 0.0066986896   -5.6350385   0.76618037      8192000 
   28000   0.51184716    -5.634794    -5.634794   -4.8670234 0.0079678207    -5.634794   0.76777055      8192000 
   29000    0.5122481   -5.6338635   -5.6338635   -4.8654915 0.0097374992   -5.6338635   0.76837195      8192000 
   30000   0.51256257   -5.6328101   -5.6328101   -4.8639665  0.012343637   -5.6328101   0.76884367      8192000 
   31000   0.51335719   -5.6324172   -5.6324172   -4.8623816  0.012645766   -5.6324172    0.7700356      8192000 
   32000    0.5139187    -5.632041    -5.632041   -4.8611632  0.012258499    -5.632041   0.77087786      8192000 
   33000   0.51430731   -5.6310743   -5.6310743   -4.8596135  0.012291294   -5.6310743   0.77146077      8192000 
   34000      0.51449   -5.6300569   -5.6300569   -4.8583221  0.013642404   -5.6300569   0.77173481      8192000 
   35000   0.51493236   -5.6287223   -5.6287223   -4.8563239  0.014545525   -5.6287223   0.77239834      8192000 
   36000   0.51590639     -5.62877     -5.62877   -4.8549106  0.012952975     -5.62877   0.77385939      8192000 
   37000   0.51616491   -5.6273741   -5.6273741    -4.853127  0.015401147   -5.6273741   0.77424717      8192000 
   38000   0.51674204   -5.6269117   -5.6269117   -4.8517988  0.014879382   -5.6269117   0.77511287      8192000 
   39000   0.51727153   -5.6260128   -5.6260128   -4.8501057  0.015932882   -5.6260128   0.77590709      8192000 
   40000     0.518047   -5.6251978   -5.6251978   -4.8481275  0.016123679   -5.6251978   0.77707031      8192000 
   41000   0.51875252   -5.6245365   -5.6245365   -4.8464079  0.016176603   -5.6245365   0.77812859      8192000 
   42000   0.51879501    -5.622809    -5.622809   -4.8446167  0.018503865    -5.622809   0.77819231      8192000 
   43000   0.51976059   -5.6225902   -5.6225902   -4.8429495  0.017087758   -5.6225902   0.77964069      8192000 
   44000   0.51971113   -5.6213493   -5.6213493   -4.8417828  0.016943154   -5.6213493    0.7795665      8192000 
   45000    0.5204509   -5.6206661   -5.6206661     -4.83999  0.015725071   -5.6206661   0.78067616      8192000 
   46000   0.52111898   -5.6198613   -5.6198613    -4.838183  0.015462716   -5.6198613   0.78167827      8192000 
   47000   0.52148699    -5.618886    -5.618886   -4.8366557  0.016028449    -5.618886   0.78223028      8192000 
   48000   0.52172873   -5.6182452   -5.6182452   -4.8356523  0.015908982   -5.6182452   0.78259289      8192000 
   49000   0.52271022   -5.6175603   -5.6175603   -4.8334951   0.01592294   -5.6175603   0.78406514      8192000 
   50000   0.52273971   -5.6162473   -5.6162473    -4.832138  0.016863223   -5.6162473   0.78410937      8192000 
   51000   0.52343822   -5.6153922   -5.6153922   -4.8302351  0.016065921   -5.6153922   0.78515713      8192000 
   52000   0.52405691   -5.6144454   -5.6144454   -4.8283603  0.016510132   -5.6144454   0.78608517      8192000 
   53000   0.52431605   -5.6134525   -5.6134525   -4.8269786  0.015673177   -5.6134525   0.78647388      8192000 
   54000   0.52480977   -5.6123617   -5.6123617   -4.8251472  0.016081555   -5.6123617   0.78721446      8192000 
   55000   0.52543088   -5.6120353   -5.6120353   -4.8238891  0.015052708   -5.6120353   0.78814613      8192000 
   56000   0.52576094   -5.6106703   -5.6106703   -4.8220291  0.016111346   -5.6106703   0.78864121      8192000 
   57000   0.52617165   -5.6095815   -5.6095815   -4.8203243  0.016320512   -5.6095815   0.78925728      8192000 
   58000   0.52712365   -5.6093644   -5.6093644   -4.8186792  0.014358134   -5.6093644   0.79068527      8192000 
   59000   0.52723458   -5.6079592   -5.6079592   -4.8171075  0.015073591   -5.6079592   0.79085167      8192000 
   60000    0.5281068    -5.607298    -5.607298    -4.815138  0.014639689    -5.607298      0.79216      8192000 
   61000    0.5282539   -5.6056343   -5.6056343   -4.8132536  0.015623135   -5.6056343   0.79238066      8192000 
   62000   0.52936727   -5.6059228   -5.6059228   -4.8118721  0.013332184   -5.6059228   0.79405071      8192000 
   63000   0.52902626   -5.6039107   -5.6039107   -4.8103715  0.015418993   -5.6039107    0.7935392      8192000 
   64000   0.52960554   -5.6028288   -5.6028288   -4.8084206  0.014938878   -5.6028288   0.79440811      8192000 
   65000   0.53051561   -5.6025634   -5.6025634   -4.8067902  0.014737584   -5.6025634   0.79577322      8192000 
   66000   0.53100522   -5.6018235   -5.6018235   -4.8053158  0.014209333   -5.6018235   0.79650763      8192000 
   67000   0.53131763   -5.6006971   -5.6006971   -4.8037208  0.014703619   -5.6006971   0.79697625      8192000 
   68000   0.53204012   -5.5997471   -5.5997471   -4.8016871  0.015218471   -5.5997471   0.79805998      8192000 
   69000   0.53222429   -5.5982902   -5.5982902    -4.799954  0.017075185   -5.5982902   0.79833624      8192000 
   70000   0.53285826   -5.5975077   -5.5975077   -4.7982205  0.014585523   -5.5975077    0.7992872      8192000 
   71000   0.53337936    -5.596568    -5.596568   -4.7964991  0.015350316    -5.596568   0.80006884      8192000 
   72000   0.53377868   -5.5957834   -5.5957834   -4.7951156  0.014247247   -5.5957834   0.80066782      8192000 
   73000    0.5341583   -5.5946928   -5.5946928   -4.7934556  0.015046593   -5.5946928   0.80123725      8192000 
   74000   0.53488422   -5.5940796   -5.5940796   -4.7917535  0.013930373   -5.5940796   0.80232612      8192000 
   75000   0.53499588   -5.5929551   -5.5929551   -4.7904615  0.015021906   -5.5929551   0.80249363      8192000 
   76000   0.53572896   -5.5920296   -5.5920296   -4.7884364  0.014654579   -5.5920296   0.80359324      8192000 
   77000   0.53607583   -5.5911278   -5.5911278   -4.7870143  0.013932425   -5.5911278   0.80411354      8192000 
   78000   0.53645017   -5.5898879   -5.5898879   -4.7852128  0.016104928   -5.5898879   0.80467506      8192000 
   79000   0.53713209   -5.5890896   -5.5890896   -4.7833917  0.015444245   -5.5890896   0.80569793      8192000 
   80000   0.53789893   -5.5883578   -5.5883578   -4.7815096  0.015006098   -5.5883578   0.80684819      8192000 
   81000   0.53843908   -5.5873418   -5.5873418   -4.7796834  0.014997813   -5.5873418   0.80765841      8192000 
   82000   0.53895497   -5.5864477   -5.5864477   -4.7780155  0.014161197   -5.5864477   0.80843225      8192000 
   83000   0.53926434   -5.5849304   -5.5849304   -4.7760341  0.016575177   -5.5849304    0.8088963      8192000 
   84000   0.53971059   -5.5842887   -5.5842887    -4.774723   0.01459139   -5.5842887   0.80956568      8192000 
   85000   0.54009428   -5.5831374   -5.5831374   -4.7729962  0.013955314   -5.5831374   0.81014122      8192000 
   86000   0.54073909   -5.5819499   -5.5819499   -4.7708415  0.015668492   -5.5819499   0.81110844      8192000 
   87000   0.54161243   -5.5813965   -5.5813965    -4.768978   0.01480297   -5.5813965   0.81241845      8192000 
   88000   0.54197028   -5.5800153   -5.5800153   -4.7670601  0.015959624   -5.5800153   0.81295522      8192000 
   89000   0.54214394   -5.5788484   -5.5788484   -4.7656327  0.016089631   -5.5788484   0.81321571      8192000 
   90000   0.54235491   -5.5782979   -5.5782979   -4.7647658  0.015020213   -5.5782979   0.81353215      8192000 
   91000   0.54318042   -5.5773893   -5.5773893   -4.7626189  0.015838022   -5.5773893   0.81477043      8192000 
   92000   0.54365224    -5.576604    -5.576604   -4.7611259  0.014883423    -5.576604   0.81547815      8192000 
   93000   0.54446954   -5.5758113   -5.5758113   -4.7591072  0.013087919   -5.5758113    0.8167041      8192000 
   94000   0.54484824   -5.5741872   -5.5741872   -4.7569151  0.014803955   -5.5741872   0.81727216      8192000 
   95000   0.54497012   -5.5724921   -5.5724921   -4.7550372  0.016635943   -5.5724921   0.81745497      8192000 
   96000   0.54556846   -5.5719379   -5.5719379   -4.7535854  0.015446566   -5.5719379   0.81835248      8192000 
   97000   0.54603712   -5.5709071   -5.5709071   -4.7518516  0.016778043   -5.5709071   0.81905547      8192000 
   98000   0.54679176   -5.5700537   -5.5700537   -4.7498663  0.016964833   -5.5700537   0.82018744      8192000 
   99000   0.54715292   -5.5686736   -5.5686736   -4.7479444  0.017657278   -5.5686736   0.82072917      8192000 
  100000    0.5478388   -5.5681265   -5.5681265   -4.7463685  0.016110239   -5.5681265     0.821758      8192000 
  101000   0.54813374   -5.5669354   -5.5669354    -4.744735  0.016663226   -5.5669354    0.8222004      8192000 
  102000   0.54856566   -5.5660174   -5.5660174   -4.7431691  0.015891827   -5.5660174   0.82284829      8192000 
  103000   0.54930083   -5.5654424   -5.5654424   -4.7414913  0.014831539   -5.5654424   0.82395103      8192000 
  104000   0.54984549    -5.564213    -5.564213   -4.7394449  0.016680342    -5.564213   0.82476803      8192000 
  105000   0.55018987    -5.563382    -5.563382   -4.7380974  0.016430705    -5.563382    0.8252846      8192000 
  106000   0.55069204   -5.5620227   -5.5620227   -4.7359848   0.01746757   -5.5620227   0.82603785      8192000 
  107000   0.55102618   -5.5612537   -5.5612537   -4.7347147  0.016580508   -5.5612537   0.82653906      8192000 
  108000   0.55122105   -5.5601893   -5.5601893   -4.7333579  0.017088086   -5.5601893   0.82683137      8192000 
  109000   0.55193629   -5.5589638   -5.5589638   -4.7310596  0.018367854   -5.5589638   0.82790423      8192000 
  110000   0.55261957   -5.5578084   -5.5578084   -4.7288792  0.019093683   -5.5578084   0.82892915      8192000 
  111000   0.55333524   -5.5569064   -5.5569064   -4.7269038  0.017835398   -5.5569064   0.83000266      8192000 
  112000   0.55363217   -5.5555781   -5.5555781   -4.7251301  0.019012624   -5.5555781   0.83044805      8192000 
  113000   0.55427787   -5.5546178   -5.5546178   -4.7232012  0.019782594   -5.5546178    0.8314166      8192000 
  114000   0.55468237   -5.5535069   -5.5535069   -4.7214836  0.019922775   -5.5535069   0.83202335      8192000 
  115000   0.55535974   -5.5523905   -5.5523905   -4.7193511  0.019754267   -5.5523905   0.83303941      8192000 
  116000   0.55556012   -5.5514512   -5.5514512   -4.7181113   0.01876617   -5.5514512   0.83333998      8192000 
  117000   0.55603153   -5.5504046   -5.5504046   -4.7163576    0.0185082   -5.5504046   0.83404709      8192000 
  118000   0.55669676   -5.5492599   -5.5492599    -4.714215  0.018286204   -5.5492599   0.83504493      8192000 
  119000   0.55722785   -5.5482042   -5.5482042   -4.7123626  0.018760223   -5.5482042   0.83584157      8192000 
  120000   0.55720598   -5.5468681   -5.5468681   -4.7110593  0.018585219   -5.5468681   0.83580877      8192000 
  121000   0.55793434    -5.546326    -5.546326   -4.7094247   0.01702802    -5.546326    0.8369013      8192000 
  122000   0.55865109   -5.5454006   -5.5454006   -4.7074242  0.017177915   -5.5454006   0.83797642      8192000 
  123000     0.558928   -5.5439102   -5.5439102   -4.7055184  0.018335525   -5.5439102   0.83839179      8192000 
  124000    0.5596772   -5.5425698   -5.5425698   -4.7030542  0.020175937   -5.5425698   0.83951559      8192000 
  125000   0.56041417   -5.5417114   -5.5417114   -4.7010903  0.018726444   -5.5417114   0.84062105      8192000 
  126000   0.56067437   -5.5402555   -5.5402555   -4.6992442  0.020108794   -5.5402555   0.84101135      8192000 
  127000   0.56112436   -5.5395429   -5.5395429   -4.6978565  0.020035365   -5.5395429   0.84168632      8192000 
  128000   0.56153405   -5.5375074   -5.5375074   -4.6952065  0.022339536   -5.5375074   0.84230086      8192000 
  129000   0.56216904   -5.5369623   -5.5369623    -4.693709  0.020415432   -5.5369623   0.84325336      8192000 
  130000   0.56294023   -5.5360724   -5.5360724   -4.6916623  0.019881992   -5.5360724   0.84441014      8192000 
  131000      0.56323   -5.5345957   -5.5345957   -4.6897509  0.021778489   -5.5345957   0.84484479      8192000 
  132000   0.56366026   -5.5333506   -5.5333506   -4.6878604  0.021769245   -5.5333506   0.84549018      8192000 
  133000   0.56365986    -5.531787    -5.531787   -4.6862974  0.021066666    -5.531787   0.84548958      8192000 
  134000   0.56434523   -5.5307525   -5.5307525   -4.6842348  0.022169901   -5.5307525   0.84651763      8192000 
  135000   0.56533446   -5.5297914   -5.5297914   -4.6817899  0.021888397   -5.5297914   0.84800147      8192000 
  136000   0.56554563    -5.528209    -5.528209   -4.6798907  0.023092946    -5.528209   0.84831824      8192000 
  137000   0.56680474   -5.5280929   -5.5280929    -4.677886  0.020449513   -5.5280929    0.8502069      8192000 
  138000   0.56663158   -5.5260637   -5.5260637   -4.6761166  0.022348262   -5.5260637   0.84994715      8192000 
  139000    0.5672792   -5.5250713   -5.5250713   -4.6741527  0.022325293   -5.5250713   0.85091859      8192000 
  140000   0.56769527   -5.5234495   -5.5234495   -4.6719068  0.023826427   -5.5234495   0.85154269      8192000 
  141000   0.56822154   -5.5221995   -5.5221995   -4.6698675  0.023604057   -5.5221995   0.85233209      8192000 
  142000   0.56844012   -5.5207534   -5.5207534   -4.6680935  0.025201514   -5.5207534   0.85265996      8192000 
  143000   0.56897355    -5.520195    -5.520195   -4.6667349  0.021965973    -5.520195   0.85346011      8192000 
  144000   0.56939427   -5.5192342   -5.5192342    -4.665143  0.022501108   -5.5192342   0.85409119      8192000 
  145000   0.57025043   -5.5185739   -5.5185739   -4.6631985  0.021638027   -5.5185739   0.85537543      8192000 
  146000   0.57086207   -5.5169312   -5.5169312   -4.6606383  0.023436747   -5.5169312   0.85629289      8192000 
  147000   0.57129535   -5.5156692   -5.5156692   -4.6587264  0.023890814   -5.5156692   0.85694281      8192000 
  148000   0.57195872    -5.514601    -5.514601   -4.6566631  0.024011498    -5.514601   0.85793787      8192000 
  149000   0.57211884   -5.5133067   -5.5133067   -4.6551286  0.024801054   -5.5133067   0.85817804      8192000 
  150000   0.57250731   -5.5117119   -5.5117119   -4.6529511  0.025417928   -5.5117119   0.85876075      8192000 
  151000   0.57285216   -5.5109931   -5.5109931    -4.651715  0.024585039   -5.5109931   0.85927802      8192000 
  152000   0.57320729   -5.5101075   -5.5101075   -4.6502967  0.022288464   -5.5101075   0.85981073      8192000 
  153000   0.57370217    -5.508798    -5.508798    -4.648245  0.023580562    -5.508798   0.86055305      8192000 
  154000   0.57431749   -5.5074744   -5.5074744   -4.6459984  0.023813463   -5.5074744   0.86147601      8192000 
  155000    0.5751101   -5.5060916   -5.5060916   -4.6434267  0.023768278   -5.5060916   0.86266493      8192000 
  156000   0.57507518   -5.5046373   -5.5046373   -4.6420247  0.024962415   -5.5046373   0.86261255      8192000 
  157000   0.57600915    -5.503692    -5.503692   -4.6396785   0.02368332    -5.503692   0.86401351      8192000 
  158000   0.57631292   -5.5020108   -5.5020108   -4.6375417  0.024993829   -5.5020108   0.86446916      8192000 
  159000    0.5765294   -5.5001662   -5.5001662   -4.6353723  0.025892126   -5.5001662   0.86479389      8192000 
  160000   0.57750136    -5.499096    -5.499096   -4.6328441  0.024989285    -5.499096   0.86625183      8192000 
  161000   0.57782674   -5.4974026   -5.4974026   -4.6306627  0.027733958   -5.4974026   0.86673989      8192000 
  162000   0.57839156   -5.4966428   -5.4966428   -4.6290557  0.026791949   -5.4966428   0.86758712      8192000 
  163000   0.57897536   -5.4952222   -5.4952222   -4.6267593  0.025634087   -5.4952222   0.86846282      8192000 
  164000   0.57929555   -5.4934009   -5.4934009   -4.6244578  0.028048943   -5.4934009   0.86894311      8192000 
  165000   0.58014007   -5.4926251   -5.4926251   -4.6224152  0.026758186   -5.4926251   0.87020988      8192000 
  166000   0.58021583   -5.4914139   -5.4914139   -4.6210904  0.027278106   -5.4914139   0.87032353      8192000 
  167000   0.58097546   -5.4903354   -5.4903354   -4.6188724   0.02781096   -5.4903354   0.87146298      8192000 
  168000   0.58105101   -5.4885176   -5.4885176   -4.6169413  0.028585524   -5.4885176    0.8715763      8192000 
  169000   0.58134228   -5.4874591   -5.4874591   -4.6154459  0.027834508   -5.4874591   0.87201321      8192000 
  170000   0.58196747   -5.4861806   -5.4861806   -4.6132296  0.029217233   -5.4861806   0.87295099      8192000 
  171000   0.58281739   -5.4853736   -5.4853736   -4.6111477  0.027414081   -5.4853736   0.87422586      8192000 
  172000   0.58321489   -5.4838873   -5.4838873   -4.6090652  0.027969443   -5.4838873   0.87482211      8192000 
  173000   0.58367609   -5.4821248   -5.4821248   -4.6066109  0.030396238   -5.4821248   0.87551392      8192000 
  174000   0.58392348   -5.4810915   -5.4810915   -4.6052065  0.029340204   -5.4810915   0.87588499      8192000 
  175000    0.5843702   -5.4793089   -5.4793089   -4.6027538  0.031897537   -5.4793089   0.87655508      8192000 
  176000    0.5853031   -5.4786595   -5.4786595    -4.600705  0.030553072   -5.4786595   0.87795443      8192000 
  177000   0.58603787   -5.4775109   -5.4775109   -4.5984543  0.029872324   -5.4775109   0.87905659      8192000 
  178000   0.58644244   -5.4755534   -5.4755534     -4.59589  0.032462997   -5.4755534   0.87966344      8192000 
  179000   0.58680721   -5.4739444   -5.4739444   -4.5937338  0.032239895   -5.4739444    0.8802106      8192000 
  180000   0.58750954   -5.4727426   -5.4727426   -4.5914785   0.03255027   -5.4727426   0.88126409      8192000 
  181000   0.58780114   -5.4712801   -5.4712801   -4.5895786   0.03235235   -5.4712801   0.88170149      8192000 
  182000    0.5882558    -5.470069    -5.470069   -4.5876855  0.032630511    -5.470069   0.88238349      8192000 
  183000   0.58848781   -5.4691152   -5.4691152   -4.5863837  0.030665091   -5.4691152    0.8827315      8192000 
  184000   0.58852579   -5.4671322   -5.4671322   -4.5843438  0.033044212   -5.4671322   0.88278846      8192000 
  185000   0.58961151   -5.4662445   -5.4662445   -4.5818275  0.033388275   -5.4662445   0.88441704      8192000 
  186000   0.58997273   -5.4644778   -5.4644778   -4.5795189  0.034375189   -5.4644778   0.88495887      8192000 
  187000   0.59064287   -5.4631959   -5.4631959   -4.5772319  0.035226261   -5.4631959   0.88596409      8192000 
  188000   0.59095362   -5.4619452   -5.4619452    -4.575515   0.03458379   -5.4619452   0.88643021      8192000 
  189000   0.59139902   -5.4610543   -5.4610543    -4.573956  0.034329713   -5.4610543    0.8870983      8192000 
  190000   0.59174554   -5.4590427   -5.4590427   -4.5714246  0.035350421   -5.4590427   0.88761808      8192000 
  191000   0.59251293    -5.457979    -5.457979   -4.5692099  0.035706048    -5.457979   0.88876917      8192000 
  192000   0.59299565   -5.4564812   -5.4564812    -4.566988  0.036071495   -5.4564812   0.88949325      8192000 
  193000   0.59358243   -5.4559503   -5.4559503   -4.5655769  0.033719036   -5.4559503   0.89037343      8192000 
  194000   0.59390721    -5.454023    -5.454023   -4.5631624  0.034944186    -5.454023    0.8908606      8192000 
  195000   0.59422511   -5.4525276   -5.4525276   -4.5611901  0.035117578   -5.4525276   0.89133744      8192000 
  196000   0.59472461   -5.4507231   -5.4507231   -4.5586364  0.036223132   -5.4507231    0.8920867      8192000 
  197000    0.5948632   -5.4482289   -5.4482289   -4.5559344  0.039882835   -5.4482289   0.89229457      8192000 
  198000   0.59574464   -5.4472557   -5.4472557   -4.5536389   0.03870949   -5.4472557   0.89361673      8192000 
  199000   0.59646856   -5.4460407   -5.4460407   -4.5513381  0.038546912   -5.4460407   0.89470261      8192000 
  200000   0.59720584   -5.4449017   -5.4449017   -4.5490932  0.038314486   -5.4449017   0.89580853      8192000 
  201000   0.59763638   -5.4428499   -5.4428499   -4.5463956  0.040060709   -5.4428499   0.89645435      8192000 
  202000     0.598343   -5.4410418   -5.4410418   -4.5435275  0.041786147   -5.4410418   0.89751427      8192000 
  203000   0.59869118   -5.4396411   -5.4396411   -4.5416045  0.042348741   -5.4396411   0.89803654      8192000 
  204000   0.59939901   -5.4386289   -5.4386289   -4.5395306   0.04244628   -5.4386289   0.89909829      8192000 
  205000   0.59973983   -5.4371003   -5.4371003   -4.5374907  0.042001153   -5.4371003   0.89960952      8192000 
  206000   0.60040685   -5.4357193   -5.4357193   -4.5351092  0.042391118   -5.4357193   0.90061004      8192000 
  207000   0.60081175   -5.4343721   -5.4343721   -4.5331547  0.042536162   -5.4343721    0.9012174      8192000 
  208000   0.60114038   -5.4326138   -5.4326138   -4.5309035  0.042916582   -5.4326138   0.90171035      8192000 
  209000   0.60168254   -5.4314171   -5.4314171   -4.5288935  0.043302598   -5.4314171   0.90252358      8192000 
  210000   0.60228776   -5.4296699   -5.4296699   -4.5262384  0.043164172   -5.4296699   0.90343141      8192000 
  211000   0.60248614   -5.4274024   -5.4274024   -4.5236734  0.044507061   -5.4274024   0.90372898      8192000 
  212000   0.60313817   -5.4261654   -5.4261654   -4.5214583  0.044078116   -5.4261654   0.90470703      8192000 
  213000   0.60331366     -5.42439     -5.42439   -4.5194198   0.04384434     -5.42439   0.90497027      8192000 
  214000    0.6042366   -5.4235139   -5.4235139   -4.5171592  0.042997306   -5.4235139   0.90635468      8192000 
  215000   0.60465214   -5.4215899   -5.4215899   -4.5146119  0.043768618   -5.4215899   0.90697798      8192000 
  216000   0.60480171   -5.4195207   -5.4195207   -4.5123183  0.044796659   -5.4195207   0.90720233      8192000 
  217000   0.60506873   -5.4177878   -5.4177878   -4.5101849  0.045602191   -5.4177878   0.90760287      8192000 
  218000   0.60614511   -5.4162759   -5.4162759   -4.5070584  0.045513421   -5.4162759   0.90921744      8192000 
  219000   0.60645824   -5.4148036   -5.4148036   -4.5051165  0.044145378   -5.4148036   0.90968713      8192000 
  220000   0.60698129    -5.412877    -5.412877   -4.5024053  0.046079845    -5.412877   0.91047171      8192000 
  221000   0.60715591   -5.4106319   -5.4106319   -4.4998982  0.047624744   -5.4106319   0.91073363      8192000 
  222000   0.60757367   -5.4096128   -5.4096128   -4.4982526  0.047205801   -5.4096128   0.91136027      8192000 
  223000   0.60806713   -5.4079189   -5.4079189   -4.4958184  0.046946662   -5.4079189   0.91210047      8192000 
  224000   0.60875265    -5.406731    -5.406731   -4.4936023  0.047568153    -5.406731   0.91312875      8192000 
  225000   0.60933535    -5.405027    -5.405027   -4.4910242    0.0491775    -5.405027   0.91400279      8192000 
  226000   0.60975471   -5.4034546   -5.4034546   -4.4888228  0.048967211   -5.4034546   0.91463184      8192000 
  227000    0.6103361   -5.4022781   -5.4022781   -4.4867742  0.048872821   -5.4022781   0.91550392      8192000 
  228000   0.61087671    -5.400016    -5.400016   -4.4837012  0.050932484    -5.400016   0.91631484      8192000 
  229000   0.61139932   -5.3985749   -5.3985749   -4.4814761   0.05214887   -5.3985749   0.91709875      8192000 
  230000   0.61214992   -5.3972455   -5.3972455   -4.4790208  0.050460617   -5.3972455   0.91822465      8192000 
  231000   0.61229439   -5.3950895   -5.3950895   -4.4766481  0.052313846   -5.3950895   0.91844135      8192000 
  232000   0.61266077   -5.3936749   -5.3936749   -4.4746839  0.051189087   -5.3936749   0.91899093      8192000 
  233000   0.61280927   -5.3917227   -5.3917227    -4.472509  0.052978632   -5.3917227   0.91921367      8192000 
  234000   0.61389469   -5.3902191   -5.3902191   -4.4693773  0.053651497   -5.3902191   0.92084181      8192000 
  235000   0.61447719   -5.3891185   -5.3891185    -4.467403  0.052156515   -5.3891185   0.92171555      8192000 
  236000   0.61473167   -5.3868525   -5.3868525   -4.4647552  0.054390547   -5.3868525   0.92209727      8192000 
  237000   0.61514466   -5.3853231   -5.3853231   -4.4626064  0.054659618   -5.3853231   0.92271675      8192000 
  238000   0.61552445   -5.3833609   -5.3833609   -4.4600745  0.054608217   -5.3833609   0.92328644      8192000 
  239000   0.61619022   -5.3811294   -5.3811294   -4.4568444  0.057361147   -5.3811294    0.9242851      8192000 
  240000   0.61687396   -5.3801479   -5.3801479   -4.4548372  0.054960788   -5.3801479   0.92531071      8192000 
  241000   0.61732857   -5.3782786   -5.3782786    -4.452286  0.054308642   -5.3782786   0.92599263      8192000 
  242000   0.61767804   -5.3765577   -5.3765577   -4.4500408  0.053886208   -5.3765577   0.92651683      8192000 
  243000   0.61714599   -5.3741129   -5.3741129   -4.4483941  0.055957418   -5.3741129   0.92571875      8192000 
  244000   0.61802171   -5.3729471   -5.3729471   -4.4459148  0.054520854   -5.3729471   0.92703233      8192000 
  245000   0.61848191   -5.3707592   -5.3707592   -4.4430365    0.0558133   -5.3707592   0.92772263      8192000 
  246000   0.61934373   -5.3691391   -5.3691391   -4.4401237  0.056750878   -5.3691391   0.92901536      8192000 
  247000   0.61962033   -5.3670535   -5.3670535   -4.4376233  0.057571969   -5.3670535   0.92943026      8192000 
  248000   0.62029882   -5.3657652   -5.3657652   -4.4353172  0.056647308   -5.3657652     0.930448      8192000 
  249000   0.62059939   -5.3634666   -5.3634666   -4.4325678  0.058253883   -5.3634666   0.93089886      8192000 
  250000   0.62144732   -5.3613086   -5.3613086   -4.4291379  0.059687968   -5.3613086   0.93217075      8192000 
  251000   0.62216235   -5.3592972   -5.3592972   -4.4260539  0.060808187   -5.3592972   0.93324329      8192000 
  252000   0.62262957   -5.3581434   -5.3581434   -4.4241993  0.058949019   -5.3581434   0.93394412      8192000 
  253000   0.62303013   -5.3558335   -5.3558335   -4.4212886  0.059439426   -5.3558335   0.93454496      8192000 
  254000   0.62333413   -5.3534289   -5.3534289   -4.4184279  0.061376945   -5.3534289   0.93500096      8192000 
  255000   0.62409764   -5.3515606   -5.3515606   -4.4154144  0.060886022   -5.3515606   0.93614622      8192000 
  256000   0.62471472   -5.3499062   -5.3499062   -4.4128343  0.061474061   -5.3499062   0.93707184      8192000 
  257000   0.62495773   -5.3482276   -5.3482276   -4.4107912  0.061466124   -5.3482276   0.93743636      8192000 
  258000   0.62551867   -5.3461771   -5.3461771   -4.4078993  0.061837327   -5.3461771   0.93827778      8192000 
  259000    0.6257743    -5.343663    -5.343663   -4.4050017  0.064383011    -5.343663   0.93866122      8192000 
  260000   0.62653075   -5.3418208   -5.3418208   -4.4020249  0.063809865   -5.3418208    0.9397959      8192000 
  261000   0.62719474   -5.3400454   -5.3400454   -4.3992536   0.06346693   -5.3400454   0.94079188      8192000 
  262000   0.62755193   -5.3374088   -5.3374088   -4.3960811  0.065886296   -5.3374088   0.94132766      8192000 
  263000    0.6281137   -5.3353788   -5.3353788   -4.3932085  0.066725695   -5.3353788   0.94217031      8192000 
  264000   0.62865729    -5.333707    -5.333707   -4.3907213  0.064751617    -5.333707    0.9429857      8192000 
  265000   0.62900784    -5.331545    -5.331545   -4.3880334  0.066629231    -5.331545   0.94351153      8192000 
  266000   0.62953486   -5.3293865   -5.3293865   -4.3850844   0.06774993   -5.3293865   0.94430205      8192000 
  267000   0.63045262   -5.3274075   -5.3274075   -4.3817288   0.06822701   -5.3274075   0.94567869      8192000 
  268000   0.63114938   -5.3262934   -5.3262934   -4.3795696  0.065768625   -5.3262934   0.94672384      8192000 
  269000   0.63124817   -5.3239594   -5.3239594   -4.3770873  0.067173196   -5.3239594   0.94687202      8192000 
  270000   0.63160395   -5.3210887   -5.3210887    -4.373683  0.068729073   -5.3210887   0.94740569      8192000 
  271000   0.63195117   -5.3192503   -5.3192503   -4.3713237  0.068113369   -5.3192503   0.94792651      8192000 
  272000   0.63249828    -5.317314    -5.317314   -4.3685668    0.0675945    -5.317314   0.94874718      8192000 
  273000   0.63302404   -5.3151525   -5.3151525   -4.3656167   0.06752903   -5.3151525   0.94953582      8192000 
  274000   0.63330509   -5.3129391   -5.3129391   -4.3629817  0.068793452   -5.3129391   0.94995739      8192000 
  275000    0.6335732   -5.3108285   -5.3108285   -4.3604689  0.068891424   -5.3108285   0.95035956      8192000 
  276000   0.63422308   -5.3090758   -5.3090758   -4.3577414  0.069926128   -5.3090758   0.95133438      8192000 
  277000   0.63473644   -5.3076714   -5.3076714    -4.355567  0.068213047   -5.3076714   0.95210442      8192000 
  278000   0.63494861   -5.3052768   -5.3052768   -4.3528541  0.069597478   -5.3052768   0.95242268      8192000 
  279000   0.63506772   -5.3031252   -5.3031252   -4.3505239  0.068764589   -5.3031252   0.95260134      8192000 
  280000   0.63578957   -5.3009314   -5.3009314   -4.3472473  0.070901993   -5.3009314   0.95368411      8192000 
  281000   0.63666795   -5.2990286   -5.2990286   -4.3440269  0.071114755   -5.2990286   0.95500169      8192000 
  282000   0.63712886   -5.2967021   -5.2967021    -4.341009  0.071440043   -5.2967021   0.95569305      8192000 
  283000    0.6373473   -5.2945863   -5.2945863   -4.3385656  0.072660549   -5.2945863   0.95602071      8192000 
  284000   0.63770819   -5.2918525   -5.2918525   -4.3352905  0.074532054   -5.2918525   0.95656205      8192000 
  285000   0.63855007   -5.2903328   -5.2903328    -4.332508  0.073937743   -5.2903328   0.95782487      8192000 
  286000   0.63890729   -5.2881015   -5.2881015   -4.3297408  0.074863839   -5.2881015   0.95836069      8192000 
  287000   0.63944572   -5.2859248   -5.2859248   -4.3267564  0.074708266   -5.2859248   0.95916834      8192000 
  288000   0.64024028   -5.2839366   -5.2839366   -4.3235764  0.075485217   -5.2839366   0.96036018      8192000 
  289000   0.64070504    -5.281201    -5.281201   -4.3201437  0.076869296    -5.281201   0.96105731      8192000 
  290000   0.64135083   -5.2799678   -5.2799678   -4.3179418  0.075164995   -5.2799678   0.96202601      8192000 
  291000   0.64124416   -5.2770062   -5.2770062   -4.3151402  0.076898939   -5.2770062     0.961866      8192000 
  292000    0.6420682   -5.2750525   -5.2750525   -4.3119504  0.077190864   -5.2750525   0.96310206      8192000 
  293000   0.64276365   -5.2730716   -5.2730716   -4.3089264  0.076858493   -5.2730716   0.96414524      8192000 
  294000   0.64302315   -5.2701069   -5.2701069   -4.3055724  0.078425748   -5.2701069   0.96453448      8192000 
  295000   0.64390033   -5.2677619   -5.2677619   -4.3019116  0.079492759   -5.2677619   0.96585026      8192000 
  296000   0.64426384   -5.2653881   -5.2653881   -4.2989925  0.081712104   -5.2653881   0.96639552      8192000 
  297000   0.64429195   -5.2629546   -5.2629546   -4.2965169   0.08150077   -5.2629546   0.96643769      8192000 
  298000   0.64491068   -5.2608432   -5.2608432   -4.2934775  0.081302412   -5.2608432   0.96736578      8192000 
  299000    0.6453346   -5.2587794   -5.2587794   -4.2907778  0.081122852   -5.2587794   0.96800166      8192000 
  300000   0.64574673   -5.2566014   -5.2566014   -4.2879816  0.080994923   -5.2566014   0.96861985      8192000 
  301000   0.64620244   -5.2538485   -5.2538485   -4.2845451   0.08229629   -5.2538485   0.96930342      8192000 
  302000   0.64702209   -5.2524197   -5.2524197   -4.2818868  0.080624598   -5.2524197   0.97053289      8192000 
  303000   0.64677139   -5.2490031   -5.2490031   -4.2788463  0.083931646   -5.2490031   0.97015684      8192000 
  304000   0.64806975   -5.2477635   -5.2477635   -4.2756591  0.081776469   -5.2477635   0.97210438      8192000 
  305000   0.64822585   -5.2452583   -5.2452583   -4.2729198    0.0825438   -5.2452583   0.97233853      8192000 
  306000   0.64875574   -5.2427657   -5.2427657   -4.2696324  0.083043493   -5.2427657   0.97313336      8192000 
  307000   0.64945425   -5.2403892   -5.2403892    -4.266208  0.082938317   -5.2403892   0.97418113      8192000 
  308000   0.64973076   -5.2381911   -5.2381911   -4.2635952  0.082774975   -5.2381911   0.97459589      8192000 
  309000   0.65021748   -5.2356011   -5.2356011   -4.2602752  0.082912467   -5.2356011   0.97532598      8192000 
  310000   0.65072871   -5.2327944   -5.2327944   -4.2567015  0.086595982   -5.2327944   0.97609282      8192000 
  311000   0.65107876   -5.2302313   -5.2302313   -4.2536134  0.086360121   -5.2302313   0.97661789      8192000 
  312000    0.6513954    -5.227587    -5.227587   -4.2504942  0.086744726    -5.227587   0.97709285      8192000 
  313000   0.65214267   -5.2252367   -5.2252367   -4.2470229  0.086642839   -5.2252367   0.97821375      8192000 
  314000   0.65275594   -5.2227341   -5.2227341   -4.2436004  0.086558032   -5.2227341   0.97913366      8192000 
  315000   0.65299318   -5.2205122   -5.2205122   -4.2410227  0.086115937   -5.2205122   0.97948953      8192000 
  316000   0.65363029   -5.2179349   -5.2179349   -4.2374898  0.087386127   -5.2179349   0.98044518      8192000 
  317000   0.65412326   -5.2154281   -5.2154281   -4.2342435  0.086917879   -5.2154281   0.98118464      8192000 
  318000   0.65502778   -5.2129521   -5.2129521   -4.2304107  0.087468948   -5.2129521   0.98254143      8192000 
  319000   0.65535649   -5.2099169   -5.2099169   -4.2268824  0.088535974   -5.2099169   0.98303449      8192000 
  320000   0.65564654   -5.2071542   -5.2071542   -4.2236846  0.090182585   -5.2071542   0.98346956      8192000 
  321000   0.65599115   -5.2046562   -5.2046562   -4.2206697  0.091509385   -5.2046562   0.98398648      8192000 
  322000   0.65661401   -5.2022928   -5.2022928    -4.217372  0.091210785   -5.2022928   0.98492077      8192000 
  323000   0.65699114   -5.1997261   -5.1997261   -4.2142396  0.092685559   -5.1997261   0.98548646      8192000 
  324000   0.65747824   -5.1969844   -5.1969844   -4.2107673  0.092742133   -5.1969844   0.98621711      8192000 
  325000   0.65800744   -5.1943129   -5.1943129    -4.207302  0.092565449   -5.1943129   0.98701092      8192000 
  326000   0.65884715    -5.192579    -5.192579   -4.2043085  0.092475729    -5.192579   0.98827047      8192000 
  327000   0.65883327   -5.1893535   -5.1893535   -4.2011038  0.093004039   -5.1893535   0.98824965      8192000 
  328000   0.65966714   -5.1874982   -5.1874982   -4.1979977  0.091619416   -5.1874982   0.98950046      8192000 
  329000   0.66045971   -5.1847335   -5.1847335   -4.1940442  0.092561111   -5.1847335   0.99068932      8192000 
  330000   0.66052229   -5.1815151   -5.1815151   -4.1907319  0.093737943   -5.1815151   0.99078319      8192000 
  331000   0.66038846   -5.1787301   -5.1787301   -4.1881477  0.094229996   -5.1787301   0.99058244      8192000 
  332000   0.66115587   -5.1759055   -5.1759055   -4.1841719  0.096058164   -5.1759055   0.99173356      8192000 
  333000   0.66196033   -5.1736606   -5.1736606   -4.1807204  0.094174784   -5.1736606   0.99294025      8192000 
  334000   0.66260551   -5.1715809   -5.1715809   -4.1776729  0.092986404   -5.1715809   0.99390802      8192000 
  335000   0.66257807   -5.1686491   -5.1686491   -4.1747823  0.094641687   -5.1686491   0.99386685      8192000 
  336000   0.66308969   -5.1652966   -5.1652966   -4.1706623  0.094975274   -5.1652966   0.99463429      8192000 
  337000   0.66400584   -5.1625461   -5.1625461   -4.1665376  0.096184929   -5.1625461   0.99600852      8192000 
  338000   0.66446947   -5.1595008   -5.1595008   -4.1627969  0.096029838   -5.1595008   0.99670395      8192000 
  339000   0.66499551    -5.156955    -5.156955    -4.159462  0.097672116    -5.156955   0.99749302      8192000 
  340000   0.66533904   -5.1538979   -5.1538979   -4.1558896  0.098487204   -5.1538979   0.99800832      8192000 
  341000   0.66581516   -5.1513125   -5.1513125     -4.15259  0.097177162   -5.1513125   0.99872248      8192000 
  342000   0.66631572   -5.1484056   -5.1484056   -4.1489323  0.097179553   -5.1484056   0.99947333      8192000 
  343000   0.66684104   -5.1459376   -5.1459376   -4.1456763  0.097548091   -5.1459376    1.0002613      8192000 
  344000   0.66725607   -5.1433474   -5.1433474   -4.1424635   0.09788422   -5.1433474    1.0008839      8192000 
  345000   0.66783127   -5.1407236   -5.1407236    -4.138977  0.097413158   -5.1407236    1.0017467      8192000 
  346000   0.66792965   -5.1379573   -5.1379573   -4.1360631  0.098367914   -5.1379573    1.0018942      8192000 
  347000   0.66860242   -5.1350995   -5.1350995   -4.1321962  0.098926346   -5.1350995    1.0029034      8192000 
  348000   0.66964108   -5.1330066   -5.1330066   -4.1285452  0.098558879   -5.1330066    1.0044614      8192000 
  349000   0.66985915    -5.129315    -5.129315   -4.1245265   0.10131545    -5.129315    1.0047885      8192000 
  350000   0.67039766   -5.1264877   -5.1264877   -4.1208914   0.10048197   -5.1264877    1.0055962      8192000 
  351000   0.67093549   -5.1233717   -5.1233717   -4.1169688   0.10191685   -5.1233717     1.006403      8192000 
  352000   0.67113173   -5.1206369   -5.1206369   -4.1139396   0.10032739   -5.1206369    1.0066973      8192000 
  353000   0.67172045   -5.1180076   -5.1180076   -4.1104272   0.10062567   -5.1180076    1.0075804      8192000 
  354000   0.67202853   -5.1147997   -5.1147997   -4.1067571    0.1029488   -5.1147997    1.0080425      8192000 
  355000   0.67286172   -5.1129908   -5.1129908   -4.1036985   0.10050168   -5.1129908    1.0092923      8192000 
  356000   0.67327553   -5.1100768   -5.1100768   -4.1001638   0.10196336   -5.1100768     1.009913      8192000 
  357000    0.6735797   -5.1073553   -5.1073553    -4.096986   0.10357277   -5.1073553    1.0103693      8192000 
  358000   0.67430068    -5.103995    -5.103995   -4.0925442   0.10667427    -5.103995    1.0114508      8192000 
  359000   0.67519637   -5.1015762   -5.1015762   -4.0887819   0.10423193   -5.1015762    1.0127943      8192000 
  360000   0.67596422   -5.0992167   -5.0992167   -4.0852707   0.10265403   -5.0992167    1.0139461      8192000 
  361000   0.67573412   -5.0961502   -5.0961502   -4.0825493   0.10466837   -5.0961502    1.0136009      8192000 
  362000    0.6760892   -5.0937218   -5.0937218   -4.0795883   0.10344558   -5.0937218    1.0141335      8192000 
  363000   0.67693618   -5.0913559   -5.0913559   -4.0759519   0.10353779   -5.0913559     1.015404      8192000 
  364000    0.6769364     -5.08803     -5.08803   -4.0726256   0.10475053     -5.08803    1.0154044      8192000 
  365000   0.67759524   -5.0853268   -5.0853268   -4.0689342   0.10510868   -5.0853268    1.0163926      8192000 
  366000   0.67825382   -5.0820351   -5.0820351   -4.0646546   0.10587981   -5.0820351    1.0173805      8192000 
  367000   0.67882329   -5.0793765   -5.0793765   -4.0611418   0.10633906   -5.0793765    1.0182347      8192000 
  368000   0.67910145   -5.0769563   -5.0769563   -4.0583043   0.10556693   -5.0769563    1.0186519      8192000 
  369000   0.68005082   -5.0742683   -5.0742683   -4.0541923   0.10579413   -5.0742683     1.020076      8192000 
  370000   0.68028227   -5.0717729   -5.0717729   -4.0513497   0.10434133   -5.0717729    1.0204232      8192000 
  371000   0.68051606   -5.0688178   -5.0688178    -4.048044   0.10694254   -5.0688178    1.0207738      8192000 
  372000   0.68108091   -5.0660925   -5.0660925   -4.0444714   0.10667677   -5.0660925    1.0216211      8192000 
  373000   0.68169246   -5.0630338   -5.0630338   -4.0404953   0.10829631   -5.0630338    1.0225384      8192000 
  374000   0.68257255   -5.0603287   -5.0603287   -4.0364702   0.10830396   -5.0603287    1.0238586      8192000 
  375000   0.68275629   -5.0574241   -5.0574241     -4.03329   0.10925006   -5.0574241    1.0241342      8192000 
  376000   0.68385957   -5.0553753   -5.0553753   -4.0295862   0.10847032   -5.0553753    1.0257891      8192000 
  377000   0.68419041   -5.0518848   -5.0518848   -4.0255995   0.11016567   -5.0518848    1.0262854      8192000 
  378000   0.68435098   -5.0490271   -5.0490271   -4.0225009   0.11023685   -5.0490271    1.0265262      8192000 
  379000   0.68544141   -5.0464776   -5.0464776   -4.0183157   0.10979831   -5.0464776    1.0281619      8192000 
  380000   0.68553161   -5.0436659   -5.0436659   -4.0153688   0.10985673   -5.0436659    1.0282972      8192000 
  381000    0.6856917   -5.0407436   -5.0407436   -4.0122063   0.11047898   -5.0407436    1.0285373      8192000 
  382000   0.68657447   -5.0384385   -5.0384385   -4.0085771   0.11040004   -5.0384385    1.0298614      8192000 
  383000   0.68735105   -5.0358114   -5.0358114   -4.0047851   0.10987143   -5.0358114    1.0310263      8192000 
  384000   0.68769829   -5.0327235   -5.0327235   -4.0011763    0.1110265   -5.0327235    1.0315472      8192000 
  385000   0.68805888   -5.0297376   -5.0297376   -3.9976495   0.11150016   -5.0297376    1.0320881      8192000 
  386000    0.6887346   -5.0272208   -5.0272208   -3.9941192   0.11007427   -5.0272208    1.0331016      8192000 
  387000   0.68890042   -5.0252521   -5.0252521   -3.9919017   0.10902156   -5.0252521    1.0333504      8192000 
  388000   0.68916166   -5.0221658   -5.0221658   -3.9884235   0.10973121   -5.0221658    1.0337422      8192000 
  389000   0.68997965   -5.0192318   -5.0192318   -3.9842626   0.11082924   -5.0192318    1.0349692      8192000 
  390000   0.69063208   -5.0166662   -5.0166662   -3.9807183   0.10965904   -5.0166662    1.0359479      8192000 
  391000    0.6913592   -5.0129313   -5.0129313   -3.9758928   0.11256904   -5.0129313    1.0370385      8192000 
  392000   0.69142307    -5.010464    -5.010464   -3.9733297   0.11122715    -5.010464    1.0371343      8192000 
  393000   0.69216117    -5.007808    -5.007808   -3.9695665   0.11005058    -5.007808    1.0382415      8192000 
  394000   0.69250201   -5.0052142   -5.0052142   -3.9664614   0.11151272   -5.0052142    1.0387528      8192000 
  395000   0.69278963   -5.0024322   -5.0024322    -3.963248   0.10996758   -5.0024322    1.0391842      8192000 
  396000   0.69366054   -4.9999139   -4.9999139   -3.9594233   0.10959688   -4.9999139    1.0404906      8192000 
  397000   0.69382826   -4.9976624   -4.9976624   -3.9569203    0.1081203   -4.9976624    1.0407421      8192000 
  398000     0.694233   -4.9947999   -4.9947999   -3.9534506   0.10889474   -4.9947999    1.0413492      8192000 
  399000   0.69489227   -4.9923426   -4.9923426   -3.9500045   0.10865264   -4.9923426    1.0423381      8192000 
  400000   0.69530212   -4.9897212   -4.9897212   -3.9467683   0.10854837   -4.9897212    1.0429529      8192000 
  401000   0.69549653   -4.9865369   -4.9865369   -3.9432924   0.10991184   -4.9865369    1.0432445      8192000 
  402000   0.69613903   -4.9842266   -4.9842266   -3.9400183   0.10848227   -4.9842266    1.0442083      8192000 
  403000    0.6967947   -4.9815697   -4.9815697   -3.9363779   0.10816469   -4.9815697    1.0451918      8192000 
  404000   0.69747682   -4.9787624   -4.9787624   -3.9325474   0.10939499   -4.9787624     1.046215      8192000 
  405000   0.69805839   -4.9765549   -4.9765549   -3.9294676   0.10776347   -4.9765549    1.0470873      8192000 
  406000   0.69833082   -4.9738825   -4.9738825   -3.9263865   0.10683854   -4.9738825     1.047496      8192000 
  407000    0.6991142   -4.9710896   -4.9710896   -3.9224186   0.10784729   -4.9710896     1.048671      8192000 
  408000    0.6994664   -4.9683723   -4.9683723    -3.919173   0.10742359   -4.9683723    1.0491993      8192000 
  409000     0.699901    -4.965823    -4.965823   -3.9159717   0.10724002    -4.965823    1.0498512      8192000 
  410000     0.700723   -4.9630691   -4.9630691   -3.9119849   0.10947697   -4.9630691    1.0510842      8192000 
  411000   0.70083608   -4.9601241   -4.9601241   -3.9088703   0.10904947   -4.9601241    1.0512539      8192000 
  412000   0.70198781    -4.958394    -4.958394   -3.9054125   0.10742413    -4.958394    1.0529814      8192000 
  413000   0.70224711   -4.9557951   -4.9557951   -3.9024247   0.10669258   -4.9557951    1.0533704      8192000 
  414000   0.70258552    -4.952941    -4.952941    -3.899063   0.10848342    -4.952941     1.053878      8192000 
  415000   0.70347555   -4.9503752   -4.9503752   -3.8951621   0.10817215   -4.9503752    1.0552131      8192000 
  416000   0.70442792   -4.9485047   -4.9485047   -3.8918631   0.10601848   -4.9485047    1.0566416      8192000 
  417000   0.70443739   -4.9452501   -4.9452501   -3.8885943   0.10901651   -4.9452501    1.0566558      8192000 
  418000   0.70476562   -4.9427233   -4.9427233   -3.8855751    0.1081746   -4.9427233    1.0571482      8192000 
  419000   0.70553932    -4.940609    -4.940609   -3.8823002   0.10649946    -4.940609    1.0583087      8192000 
  420000   0.70594561   -4.9380091   -4.9380091   -3.8790909   0.10764842   -4.9380091    1.0589182      8192000 
  421000    0.7063306   -4.9360148   -4.9360148   -3.8765192   0.10542649   -4.9360148    1.0594956      8192000 
  422000   0.70695667   -4.9338687   -4.9338687    -3.873434   0.10506719   -4.9338687    1.0604347      8192000 
  423000   0.70723533   -4.9313709   -4.9313709   -3.8705181   0.10498975   -4.9313709    1.0608527      8192000 
  424000   0.70757412   -4.9286226   -4.9286226   -3.8672617   0.10461343   -4.9286226    1.0613609      8192000 
  425000   0.70779143    -4.926029    -4.926029   -3.8643422   0.10490785    -4.926029    1.0616869      8192000 
  426000   0.70870291   -4.9245317   -4.9245317   -3.8614776   0.10097174   -4.9245317    1.0630541      8192000 
  427000   0.70939424   -4.9222996   -4.9222996   -3.8582085    0.1013104   -4.9222996    1.0640911      8192000 
  428000   0.71001477   -4.9190926   -4.9190926   -3.8540707   0.10420489   -4.9190926    1.0650219      8192000 
  429000   0.71021386   -4.9164512   -4.9164512   -3.8511307   0.10415341   -4.9164512    1.0653205      8192000 
  430000    0.7110237    -4.914188    -4.914188   -3.8476527   0.10330471    -4.914188    1.0665353      8192000 
  431000   0.71169757   -4.9117366   -4.9117366   -3.8441905   0.10399718   -4.9117366    1.0675461      8192000 
  432000   0.71154625   -4.9093505   -4.9093505   -3.8420314   0.10269825   -4.9093505    1.0673191      8192000 
  433000   0.71214831   -4.9073083   -4.9073083   -3.8390861   0.10183606   -4.9073083    1.0682222      8192000 
  434000   0.71255047   -4.9049353   -4.9049353   -3.8361099   0.10077592   -4.9049353    1.0688254      8192000 
  435000   0.71317334   -4.9028583   -4.9028583   -3.8330986   0.10014489   -4.9028583    1.0697597      8192000 
  436000   0.71362737   -4.9003728   -4.9003728    -3.829932   0.10015499   -4.9003728    1.0704408      8192000 
  437000    0.7141856   -4.8981025   -4.8981025   -3.8268244  0.099982173   -4.8981025    1.0712781      8192000 
  438000   0.71518938   -4.8962194   -4.8962194   -3.8234356  0.099351754   -4.8962194    1.0727838      8192000 
  439000   0.71563006   -4.8940527   -4.8940527   -3.8206079  0.098850372   -4.8940527    1.0734448      8192000 
  440000   0.71601293   -4.8910444   -4.8910444   -3.8170252   0.10000844   -4.8910444    1.0740191      8192000 
  441000   0.71625771   -4.8887775   -4.8887775   -3.8143912   0.10066893   -4.8887775    1.0743863      8192000 
  442000   0.71661759   -4.8869296   -4.8869296   -3.8120035  0.099970793   -4.8869296    1.0749261      8192000 
  443000   0.71724942   -4.8846862   -4.8846862   -3.8088124  0.098777878   -4.8846862    1.0758739      8192000 
  444000   0.71766687   -4.8827966   -4.8827966   -3.8062965   0.09769098   -4.8827966       1.0765      8192000 
  445000   0.71804089   -4.8801044   -4.8801044   -3.8030434  0.098321744   -4.8801044    1.0770611      8192000 
  446000   0.71866264   -4.8779448   -4.8779448   -3.7999511  0.098432888   -4.8779448    1.0779937      8192000 
  447000   0.71935798   -4.8757082   -4.8757082   -3.7966715  0.098789609   -4.8757082    1.0790367      8192000 
  448000   0.72047074   -4.8736547   -4.8736547   -3.7929489  0.098331114   -4.8736547    1.0807058      8192000 
  449000   0.72084837   -4.8716678   -4.8716678   -3.7903955  0.097231715   -4.8716678    1.0812723      8192000 
  450000   0.72122319   -4.8692745   -4.8692745     -3.78744  0.097702073   -4.8692745    1.0818345      8192000 
  451000   0.72146167   -4.8666913   -4.8666913   -3.7844991  0.099325777   -4.8666913    1.0821922      8192000 
  452000   0.72215832   -4.8649173   -4.8649173   -3.7816801  0.095806125   -4.8649173    1.0832372      8192000 
  453000   0.72268382   -4.8621841   -4.8621841   -3.7781587   0.09689413   -4.8621841    1.0840255      8192000 
  454000   0.72317184   -4.8595683   -4.8595683   -3.7748108  0.096783537   -4.8595683    1.0847575      8192000 
  455000   0.72376219    -4.857038    -4.857038    -3.771395  0.097449249    -4.857038     1.085643      8192000 
  456000   0.72414097   -4.8551028   -4.8551028   -3.7688916  0.095533739   -4.8551028    1.0862112      8192000 
  457000   0.72429454    -4.853281    -4.853281   -3.7668394  0.093969595    -4.853281    1.0864415      8192000 
  458000   0.72517115   -4.8508041   -4.8508041   -3.7630476   0.09496773   -4.8508041    1.0877565      8192000 
  459000   0.72601413   -4.8490546   -4.8490546   -3.7600337  0.094120631   -4.8490546    1.0890209      8192000 
  460000   0.72592682   -4.8460733   -4.8460733   -3.7571833  0.095227564   -4.8460733      1.08889      8192000 
  461000   0.72674992    -4.843599    -4.843599   -3.7534744  0.096304276    -4.843599    1.0901246      8192000 
  462000   0.72766547   -4.8415903   -4.8415903   -3.7500924  0.096452719   -4.8415903    1.0914979      8192000 
  463000   0.72800633   -4.8389509   -4.8389509   -3.7469417  0.097765659   -4.8389509    1.0920092      8192000 
  464000   0.72899571   -4.8379367   -4.8379367   -3.7444434   0.09478764   -4.8379367    1.0934933      8192000 
  465000   0.72870755   -4.8353465   -4.8353465   -3.7422854  0.096225719   -4.8353465    1.0930611      8192000 
  466000   0.72947116    -4.833801    -4.833801   -3.7395945   0.09496842    -4.833801    1.0942065      8192000 
  467000   0.72949687     -4.83102     -4.83102   -3.7367749  0.096023942     -4.83102     1.094245      8192000 
  468000   0.73027799   -4.8294686   -4.8294686   -3.7340519  0.093995828   -4.8294686    1.0954167      8192000 
  469000   0.73071425   -4.8272543   -4.8272543   -3.7311832  0.094110573   -4.8272543    1.0960711      8192000 
  470000   0.73090462   -4.8250246   -4.8250246    -3.728668  0.094353166   -4.8250246    1.0963567      8192000 
  471000   0.73160898   -4.8228735   -4.8228735   -3.7254603  0.093323169   -4.8228735    1.0974132      8192000 
  472000   0.73237137   -4.8207186   -4.8207186   -3.7221618  0.094573388   -4.8207186    1.0985568      8192000 
  473000   0.73273681   -4.8185601   -4.8185601   -3.7194552  0.092494693   -4.8185601    1.0991049      8192000 
  474000   0.73317116   -4.8164852   -4.8164852   -3.7167288    0.0938571   -4.8164852    1.0997565      8192000 
  475000   0.73387918   -4.8144806   -4.8144806   -3.7136621  0.093678238   -4.8144806    1.1008185      8192000 
  476000   0.73395626   -4.8119128   -4.8119128   -3.7109787   0.09513168   -4.8119128    1.1009341      8192000 
  477000   0.73472084    -4.810393    -4.810393    -3.708312  0.093019701    -4.810393     1.102081      8192000 
  478000   0.73485541   -4.8077979   -4.8077979   -3.7055151  0.094586257   -4.8077979    1.1022828      8192000 
  479000   0.73525288   -4.8059524   -4.8059524   -3.7030734  0.092761379   -4.8059524     1.102879      8192000 
  480000   0.73586712   -4.8033125   -4.8033125   -3.6995121   0.09539963   -4.8033125    1.1038004      8192000 
  481000   0.73650652   -4.8019432   -4.8019432   -3.6971837  0.092949002   -4.8019432    1.1047595      8192000 
  482000   0.73691184   -4.8001617   -4.8001617   -3.6947942   0.09210361   -4.8001617    1.1053675      8192000 
  483000   0.73750393   -4.7980156   -4.7980156     -3.69176  0.092648453   -4.7980156    1.1062556      8192000 
  484000   0.73781622   -4.7957822   -4.7957822   -3.6890581  0.091753635   -4.7957822    1.1067241      8192000 
  485000   0.73809505   -4.7934079   -4.7934079   -3.6862656  0.091801654   -4.7934079    1.1071423      8192000 
  486000   0.73847317   -4.7913574   -4.7913574   -3.6836479  0.092440678   -4.7913574    1.1077095      8192000 
  487000   0.73933769   -4.7896115   -4.7896115   -3.6806052  0.091600349   -4.7896115    1.1090063      8192000 
  488000   0.74017285   -4.7874641   -4.7874641   -3.6772051  0.090238803   -4.7874641     1.110259      8192000 
  489000   0.74062907   -4.7849408   -4.7849408   -3.6739975  0.092708858   -4.7849408    1.1109433      8192000 
  490000   0.74097198   -4.7825923   -4.7825923   -3.6711346   0.09205929   -4.7825923    1.1114577      8192000 
  491000   0.74148461   -4.7803339   -4.7803339   -3.6681073  0.092332859   -4.7803339    1.1122266      8192000 
  492000   0.74231737   -4.7782365   -4.7782365   -3.6647607  0.092846731   -4.7782365    1.1134758      8192000 
  493000   0.74284721   -4.7761799   -4.7761799   -3.6619093  0.092469723   -4.7761799    1.1142705      8192000 
  494000   0.74361598   -4.7740504   -4.7740504   -3.6586267   0.09195106   -4.7740504    1.1154237      8192000 
  495000    0.7435959    -4.771582    -4.771582   -3.6561884  0.092714459    -4.771582    1.1153936      8192000 
  496000    0.7438882   -4.7695628   -4.7695628   -3.6537308  0.091586199   -4.7695628     1.115832      8192000 
  497000    0.7448002   -4.7680797   -4.7680797   -3.6508796  0.090556647   -4.7680797       1.1172      8192000 
  498000   0.74526917   -4.7653411   -4.7653411   -3.6474376  0.093415947   -4.7653411    1.1179035      8192000 
  499000   0.74605861    -4.763056    -4.763056   -3.6439684  0.093963569    -4.763056    1.1190876      8192000 
  500000   0.74654228   -4.7619566   -4.7619566   -3.6421434  0.091137306   -4.7619566    1.1198131      8192000 
  501000   0.74696291    -4.759254    -4.759254   -3.6388099  0.092629811    -4.759254    1.1204441      8192000 
  502000   0.74737466     -4.75758     -4.75758   -3.6365183  0.092250771     -4.75758    1.1210617      8192000 
  503000   0.74778122   -4.7556134   -4.7556134   -3.6339418  0.092009724   -4.7556134    1.1216715      8192000 
  504000   0.74830341   -4.7536404   -4.7536404   -3.6311855  0.091801815   -4.7536404    1.1224548      8192000 
  505000   0.74848826   -4.7519096   -4.7519096   -3.6291774  0.090655767   -4.7519096    1.1227321      8192000 
  506000   0.74897245   -4.7496511   -4.7496511   -3.6261927  0.089886676   -4.7496511    1.1234584      8192000 
  507000   0.74949347   -4.7474873   -4.7474873   -3.6232474  0.092240938   -4.7474873    1.1242399      8192000 
  508000   0.74999231   -4.7453435   -4.7453435   -3.6203553  0.092396066   -4.7453435    1.1249882      8192000 
  509000    0.7507382   -4.7431719   -4.7431719   -3.6170649   0.09188737   -4.7431719     1.126107      8192000 
  510000   0.75079392   -4.7410379   -4.7410379   -3.6148474  0.093166117   -4.7410379    1.1261906      8192000 
  511000   0.75156805    -4.738921    -4.738921   -3.6115692  0.093137781    -4.738921    1.1273518      8192000 
  512000   0.75199154    -4.736549    -4.736549    -3.608562  0.093205829    -4.736549     1.127987      8192000 
  513000   0.75277934   -4.7349567   -4.7349567    -3.605788  0.092504771   -4.7349567    1.1291687      8192000 
  514000   0.75356119   -4.7328783   -4.7328783   -3.6025368  0.093056691   -4.7328783    1.1303415      8192000 
  515000   0.75366655    -4.730407    -4.730407   -3.5999075  0.093250908    -4.730407    1.1304995      8192000 
  516000   0.75427699   -4.7285482   -4.7285482    -3.597133  0.092410745   -4.7285482    1.1314152      8192000 
  517000   0.75505521   -4.7269728   -4.7269728   -3.5943903  0.090647103   -4.7269728    1.1325825      8192000 
  518000   0.75500674   -4.7239723   -4.7239723   -3.5914625  0.092886786   -4.7239723    1.1325098      8192000 
  519000   0.75544274   -4.7228349   -4.7228349   -3.5896711  0.090618759   -4.7228349    1.1331638      8192000 
  520000   0.75558161   -4.7200644   -4.7200644   -3.5866923  0.092716976   -4.7200644    1.1333721      8192000 
  521000   0.75673836   -4.7184686   -4.7184686   -3.5833613  0.092828544   -4.7184686    1.1351073      8192000 
  522000   0.75739776   -4.7165182   -4.7165182   -3.5804219  0.092562876   -4.7165182    1.1360964      8192000 
  523000    0.7573296   -4.7139955   -4.7139955   -3.5780014  0.094864615   -4.7139955    1.1359941      8192000 
  524000   0.75808785   -4.7128091   -4.7128091   -3.5756776  0.091190783   -4.7128091    1.1371315      8192000 
  525000   0.75932571   -4.7114546   -4.7114546   -3.5724663  0.090804317   -4.7114546    1.1389883      8192000 
  526000   0.75919272   -4.7091852   -4.7091852   -3.5703964  0.091604131   -4.7091852    1.1387888      8192000 
  527000   0.75975616   -4.7067723   -4.7067723   -3.5671384  0.093971859   -4.7067723    1.1396339      8192000 
  528000   0.76018653   -4.7043231   -4.7043231   -3.5640436   0.09471033   -4.7043231    1.1402795      8192000 
  529000   0.76054597   -4.7024184   -4.7024184   -3.5615997  0.093722809   -4.7024184    1.1408187      8192000 
  530000    0.7610412   -4.7004808   -4.7004808   -3.5589193  0.093368028   -4.7004808    1.1415615      8192000 
  531000   0.76149853   -4.6987669   -4.6987669   -3.5565194  0.093491969   -4.6987669    1.1422475      8192000 
  532000    0.7622395   -4.6963878   -4.6963878   -3.5530289  0.093135113   -4.6963878     1.143359      8192000 
  533000   0.76258522   -4.6944438   -4.6944438   -3.5505662  0.093174436   -4.6944438    1.1438775      8192000 
  534000   0.76346021    -4.692659    -4.692659    -3.547469  0.092197376    -4.692659      1.14519      8192000 
  535000   0.76315313   -4.6903049   -4.6903049   -3.5455755  0.092023431   -4.6903049    1.1447294      8192000 
  536000   0.76388809   -4.6880694   -4.6880694   -3.5422376  0.093161717   -4.6880694    1.1458318      8192000 
  537000   0.76470784   -4.6860708   -4.6860708   -3.5390093  0.093786005   -4.6860708    1.1470615      8192000 
  538000   0.76561905   -4.6845291   -4.6845291   -3.5361008  0.092647155   -4.6845291    1.1484283      8192000 
  539000   0.76590686   -4.6823873   -4.6823873   -3.5335272  0.093138592   -4.6823873      1.14886      8192000 
  540000    0.7668928    -4.680565    -4.680565   -3.5302261  0.093495388    -4.680565    1.1503389      8192000 
  541000   0.76701153   -4.6780067   -4.6780067   -3.5274897  0.093827081   -4.6780067     1.150517      8192000 
  542000   0.76717549   -4.6761445   -4.6761445   -3.5253815  0.093087675   -4.6761445    1.1507629      8192000 
  543000   0.76750305   -4.6732467   -4.6732467   -3.5219924  0.093434771   -4.6732467    1.1512543      8192000 
  544000   0.76802228   -4.6714342   -4.6714342    -3.519401  0.093163412   -4.6714342    1.1520331      8192000 
  545000   0.76843844   -4.6700235   -4.6700235   -3.5173662   0.09233542   -4.6700235    1.1526574      8192000 
  546000   0.76919258   -4.6686929   -4.6686929   -3.5149043   0.09214532   -4.6686929    1.1537886      8192000 
  547000   0.76941088   -4.6660893   -4.6660893   -3.5119733  0.092722181   -4.6660893     1.154116      8192000 
  548000   0.77018054   -4.6647347   -4.6647347   -3.5094642  0.090705027   -4.6647347    1.1552705      8192000 
  549000   0.77066523   -4.6622649   -4.6622649   -3.5062674  0.092292157   -4.6622649    1.1559976      8192000 
  550000    0.7714741   -4.6603206   -4.6603206   -3.5031098  0.093215519   -4.6603206    1.1572109      8192000 
  551000   0.77165952   -4.6581355   -4.6581355   -3.5006465  0.093322456   -4.6581355     1.157489      8192000 
  552000   0.77202987   -4.6560561   -4.6560561   -3.4980116  0.093742269   -4.6560561    1.1580445      8192000 
  553000   0.77243237   -4.6537085   -4.6537085   -3.4950602  0.094256659   -4.6537085    1.1586483      8192000 
  554000   0.77326614   -4.6518873   -4.6518873   -3.4919884  0.095227714   -4.6518873    1.1598989      8192000 
  555000   0.77399356   -4.6497587   -4.6497587   -3.4887686  0.095364746   -4.6497587    1.1609901      8192000 
  556000   0.77388808   -4.6477992   -4.6477992   -3.4869673  0.094951299   -4.6477992    1.1608318      8192000 
  557000   0.77453496   -4.6463244   -4.6463244   -3.4845222  0.094082944   -4.6463244    1.1618022      8192000 
  558000   0.77486146   -4.6436174   -4.6436174   -3.4813255  0.093990953   -4.6436174    1.1622919      8192000 
  559000   0.77571013   -4.6418933   -4.6418933   -3.4783284  0.095299286   -4.6418933    1.1635649      8192000 
  560000   0.77626965   -4.6401581   -4.6401581    -3.475754  0.095164115   -4.6401581    1.1644042      8192000 
  561000   0.77700575   -4.6381366   -4.6381366   -3.4726283  0.096301748   -4.6381366    1.1655083      8192000 
  562000   0.77711953   -4.6357783   -4.6357783   -3.4700993   0.09693967   -4.6357783     1.165679      8192000 
  563000   0.77754343   -4.6339675   -4.6339675   -3.4676527  0.096696475   -4.6339675    1.1663148      8192000 
  564000   0.77826456   -4.6321976   -4.6321976    -3.464801   0.09580397   -4.6321976    1.1673966      8192000 
  565000   0.77923278   -4.6307134   -4.6307134   -3.4618645  0.095123265   -4.6307134    1.1688489      8192000 
  566000   0.77959651   -4.6278977   -4.6278977   -3.4585032  0.097173439   -4.6278977    1.1693945      8192000 
  567000   0.78031389   -4.6264461   -4.6264461   -3.4559756  0.097340488   -4.6264461    1.1704705      8192000 
  568000    0.7809094   -4.6242196   -4.6242196   -3.4528558  0.097142997   -4.6242196    1.1713638      8192000 
  569000   0.78153532   -4.6215782   -4.6215782   -3.4492755  0.099490857   -4.6215782    1.1723027      8192000 
  570000   0.78154946   -4.6196831   -4.6196831   -3.4473592  0.099132152   -4.6196831    1.1723239      8192000 
  571000   0.78194521   -4.6181428   -4.6181428   -3.4452253   0.09825037   -4.6181428    1.1729175      8192000 
  572000   0.78229678   -4.6162585   -4.6162585   -3.4428136  0.097660594   -4.6162585    1.1734449      8192000 
  573000   0.78339167   -4.6147682   -4.6147682    -3.439681   0.09572571   -4.6147682    1.1750872      8192000 
  574000   0.78342281   -4.6120283   -4.6120283   -3.4368944  0.097863505   -4.6120283    1.1751339      8192000 
  575000   0.78425236   -4.6104351   -4.6104351   -3.4340568  0.096647715   -4.6104351    1.1763782      8192000 
  576000   0.78449804   -4.6078077   -4.6078077    -3.431061  0.099545763   -4.6078077    1.1767468      8192000 
  577000   0.78509481   -4.6066967   -4.6066967   -3.4290548  0.096543563   -4.6066967    1.1776419      8192000 
  578000   0.78539691   -4.6046389   -4.6046389   -3.4265438  0.098642718   -4.6046389    1.1780951      8192000 
  579000   0.78596564   -4.6024596   -4.6024596   -3.4235115  0.098836531   -4.6024596    1.1789482      8192000 
  580000   0.78627343   -4.6004099   -4.6004099       -3.421  0.099179207   -4.6004099    1.1794099      8192000 
  581000    0.7868026   -4.5986051   -4.5986051   -3.4184015  0.099425332   -4.5986051    1.1802036      8192000 
  582000    0.7875528   -4.5961097   -4.5961097   -3.4147808   0.10050648   -4.5961097    1.1813289      8192000 
  583000   0.78809272   -4.5949081   -4.5949081   -3.4127694  0.098541107   -4.5949081    1.1821388      8192000 
  584000   0.78858776   -4.5928383   -4.5928383   -3.4099569  0.097234026   -4.5928383    1.1828813      8192000 
  585000   0.78881347   -4.5906293   -4.5906293   -3.4074094  0.096489341   -4.5906293    1.1832199      8192000 
  586000   0.78909356   -4.5883734   -4.5883734   -3.4047333  0.097861126   -4.5883734      1.18364      8192000 
  587000   0.78978474   -4.5860851   -4.5860851   -3.4014082  0.099196917   -4.5860851    1.1846768      8192000 
  588000   0.79056419   -4.5843994   -4.5843994   -3.3985534  0.097992814   -4.5843994     1.185846      8192000 
  589000   0.79081953   -4.5826746   -4.5826746   -3.3964455  0.098786731   -4.5826746     1.186229      8192000 
  590000   0.79068323   -4.5802475   -4.5802475    -3.394223  0.099818688   -4.5802475    1.1860245      8192000 
  591000    0.7914886   -4.5786982   -4.5786982   -3.3914656  0.099542942   -4.5786982    1.1872326      8192000 
  592000   0.79239302   -4.5769082   -4.5769082    -3.388319   0.09733722   -4.5769082    1.1885892      8192000 
  593000   0.79298854   -4.5754133   -4.5754133   -3.3859308  0.096462765   -4.5754133    1.1894825      8192000 
  594000   0.79327745   -4.5726695   -4.5726695   -3.3827536  0.098828157   -4.5726695    1.1899159      8192000 
  595000   0.79369105   -4.5702808   -4.5702808   -3.3797446    0.1002075   -4.5702808    1.1905363      8192000 
  596000   0.79389534   -4.5683554   -4.5683554   -3.3775127  0.098258844   -4.5683554    1.1908427      8192000 
  597000   0.79443887   -4.5661015   -4.5661015   -3.3744435   0.09862806   -4.5661015     1.191658      8192000 
  598000   0.79537315   -4.5644096   -4.5644096   -3.3713502  0.099344416   -4.5644096    1.1930594      8192000 
  599000   0.79574152   -4.5624913   -4.5624913   -3.3688793  0.099593225   -4.5624913     1.193612      8192000 
  600000   0.79592034   -4.5601274   -4.5601274   -3.3662472   0.10049629   -4.5601274    1.1938802      8192000 
  601000   0.79658097   -4.5581846   -4.5581846   -3.3633135  0.099115204   -4.5581846    1.1948712      8192000 
  602000   0.79735577    -4.556383    -4.556383   -3.3603497  0.099407321    -4.556383    1.1960334      8192000 
  603000   0.79767061   -4.5539583   -4.5539583   -3.3574527   0.10085084   -4.5539583    1.1965056      8192000 
  604000   0.79812162    -4.552394    -4.552394   -3.3552119   0.10070308    -4.552394    1.1971821      8192000 
  605000   0.79866051   -4.5499385   -4.5499385    -3.351948    0.1007792   -4.5499385    1.1979905      8192000 
  606000   0.79919149   -4.5478214   -4.5478214   -3.3490345   0.10080538   -4.5478214    1.1987869      8192000 
  607000   0.79934618   -4.5461957   -4.5461957   -3.3471768   0.10022735   -4.5461957     1.199019      8192000 
  608000   0.80035518   -4.5442283   -4.5442283   -3.3436959   0.10029465   -4.5442283    1.2005325      8192000 
  609000   0.80130822   -4.5426358   -4.5426358   -3.3406737    0.1005124   -4.5426358     1.201962      8192000 
  610000   0.80132048   -4.5405139   -4.5405139   -3.3385335   0.10071134   -4.5405139    1.2019804      8192000 
  611000   0.80204853     -4.53848     -4.53848   -3.3354075   0.10100547     -4.53848    1.2030725      8192000 
  612000   0.80283722   -4.5366217   -4.5366217   -3.3323662   0.10116171   -4.5366217    1.2042555      8192000 
  613000   0.80301865   -4.5345712   -4.5345712   -3.3300436   0.10072104   -4.5345712    1.2045277      8192000 
  614000   0.80342846   -4.5318815   -4.5318815   -3.3267391   0.10295929   -4.5318815    1.2051424      8192000 
  615000   0.80351201   -4.5296483   -4.5296483   -3.3243806    0.1035846   -4.5296483    1.2052677      8192000 
  616000   0.80369068   -4.5273186   -4.5273186   -3.3217829   0.10362294   -4.5273186    1.2055357      8192000 
  617000   0.80458062   -4.5256865   -4.5256865   -3.3188159   0.10175942   -4.5256865    1.2068706      8192000 
  618000   0.80532737   -4.5234455   -4.5234455   -3.3154547   0.10220628   -4.5234455    1.2079908      8192000 
  619000    0.8053674   -4.5216654   -4.5216654   -3.3136146   0.10234843   -4.5216654    1.2080508      8192000 
  620000   0.80607735   -4.5194458   -4.5194458   -3.3103301   0.10292681   -4.5194458    1.2091157      8192000 
  621000   0.80679104   -4.5175927   -4.5175927   -3.3074065    0.1024438   -4.5175927    1.2101863      8192000 
  622000   0.80706407   -4.5160668   -4.5160668    -3.305471   0.10147345   -4.5160668    1.2105958      8192000 
  623000   0.80783386   -4.5142318   -4.5142318   -3.3024813   0.10088075   -4.5142318    1.2117505      8192000 
  624000   0.80825937   -4.5116554   -4.5116554   -3.2992667   0.10234663   -4.5116554    1.2123887      8192000 
  625000    0.8087938   -4.5091443   -4.5091443   -3.2959539   0.10553908   -4.5091443    1.2131904      8192000 
  626000   0.80960725   -4.5076414   -4.5076414   -3.2932309   0.10382597   -4.5076414    1.2144106      8192000 
  627000   0.80994884   -4.5058833   -4.5058833   -3.2909604   0.10339558   -4.5058833     1.214923      8192000 
  628000   0.81118656   -4.5039184   -4.5039184   -3.2871388   0.10407869   -4.5039184    1.2167795      8192000 
  629000   0.81100208   -4.5009204   -4.5009204   -3.2844176   0.10550042   -4.5009204    1.2165028      8192000 
  630000   0.81164775   -4.4990616   -4.4990616   -3.2815903   0.10413658   -4.4990616    1.2174713      8192000 
  631000   0.81181288   -4.4969728   -4.4969728   -3.2792538   0.10429064   -4.4969728     1.217719      8192000 
  632000   0.81233201   -4.4960759   -4.4960759   -3.2775782   0.10218039   -4.4960759    1.2184977      8192000 
  633000    0.8126374    -4.493242    -4.493242   -3.2742862   0.10269069    -4.493242    1.2189558      8192000 
  634000   0.81277233   -4.4912538   -4.4912538   -3.2720956    0.1040619   -4.4912538    1.2191582      8192000 
  635000   0.81379781   -4.4897718   -4.4897718   -3.2690754   0.10398771   -4.4897718    1.2206964      8192000 
  636000   0.81367669   -4.4876278   -4.4876278   -3.2671131   0.10493114   -4.4876278    1.2205147      8192000 
  637000   0.81470477   -4.4859761   -4.4859761   -3.2639192   0.10463264   -4.4859761    1.2220569      8192000 
  638000   0.81529205    -4.484505    -4.484505   -3.2615673    0.1040868    -4.484505    1.2229378      8192000 
  639000   0.81522251   -4.4822341   -4.4822341   -3.2594007   0.10469985   -4.4822341    1.2228335      8192000 
  640000   0.81594638   -4.4805395   -4.4805395   -3.2566203   0.10340567   -4.4805395    1.2239193      8192000 
  641000   0.81631142   -4.4783273   -4.4783273   -3.2538604   0.10461517   -4.4783273    1.2244668      8192000 
  642000   0.81690687   -4.4758992   -4.4758992   -3.2505392   0.10688692   -4.4758992      1.22536      8192000 
  643000   0.81754762   -4.4742115   -4.4742115   -3.2478904   0.10578011   -4.4742115    1.2263211      8192000 
  644000   0.81813721   -4.4726788   -4.4726788   -3.2454733   0.10536633   -4.4726788    1.2272055      8192000 
  645000    0.8189979   -4.4708053   -4.4708053   -3.2423088   0.10355211   -4.4708053    1.2284965      8192000 
  646000    0.8192391   -4.4679408   -4.4679408   -3.2390825   0.10632249   -4.4679408    1.2288583      8192000 
  647000   0.81945469   -4.4655258   -4.4655258   -3.2363441   0.10641813   -4.4655258    1.2291817      8192000 
  648000     0.820172   -4.4633726   -4.4633726   -3.2331149   0.10863499   -4.4633726    1.2302577      8192000 
  649000   0.82108382   -4.4615955   -4.4615955   -3.2299701   0.10692858   -4.4615955    1.2316254      8192000 
  650000   0.82108146   -4.4591628   -4.4591628   -3.2275409   0.10679005   -4.4591628    1.2316219      8192000 
  651000   0.82192707   -4.4578288   -4.4578288   -3.2249385   0.10708411   -4.4578288    1.2328903      8192000 
  652000   0.82212921   -4.4555391   -4.4555391   -3.2223456   0.10730994   -4.4555391    1.2331935      8192000 
  653000   0.82303431    -4.453664    -4.453664   -3.2191128   0.10674121    -4.453664    1.2345512      8192000 
  654000   0.82306537    -4.451339    -4.451339   -3.2167412   0.10940914    -4.451339    1.2345978      8192000 
  655000   0.82400791    -4.449988    -4.449988   -3.2139765   0.10606634    -4.449988    1.2360116      8192000 
  656000   0.82407615   -4.4470717   -4.4470717   -3.2109578   0.10836281   -4.4470717    1.2361139      8192000 
  657000   0.82480193    -4.445317    -4.445317   -3.2081144   0.10599873    -4.445317    1.2372026      8192000 
  658000   0.82506769     -4.44257     -4.44257   -3.2049688   0.11039386     -4.44257    1.2376012      8192000 
  659000   0.82521138   -4.4408253   -4.4408253   -3.2030085    0.1088804   -4.4408253    1.2378168      8192000 
  660000   0.82589563   -4.4391035   -4.4391035   -3.2002604   0.10671672   -4.4391035    1.2388431      8192000 
  661000   0.82645987   -4.4368778   -4.4368778   -3.1971883    0.1068385   -4.4368778    1.2396895      8192000 
  662000   0.82719064   -4.4349207   -4.4349207   -3.1941351   0.10855667   -4.4349207    1.2407856      8192000 
  663000    0.8281661   -4.4329015   -4.4329015   -3.1906526   0.10966359   -4.4329015    1.2422488      8192000 
  664000   0.82884274   -4.4312352   -4.4312352   -3.1879714   0.10863998   -4.4312352    1.2432638      8192000 
  665000   0.82903031   -4.4291537   -4.4291537   -3.1856085   0.10916696   -4.4291537    1.2435452      8192000 
  666000   0.82931786   -4.4269619   -4.4269619   -3.1829854   0.11079871   -4.4269619    1.2439765      8192000 
  667000   0.82991568   -4.4252062   -4.4252062    -3.180333   0.11031364   -4.4252062    1.2448732      8192000 
  668000   0.83052759   -4.4232307   -4.4232307   -3.1774396   0.10992756   -4.4232307    1.2457911      8192000 
  669000   0.83114605   -4.4209436   -4.4209436   -3.1742249    0.1116103   -4.4209436    1.2467188      8192000 
  670000   0.83127318   -4.4189392   -4.4189392   -3.1720297   0.11177453   -4.4189392    1.2469095      8192000 
  671000   0.83164919   -4.4171025   -4.4171025    -3.169629   0.11150313   -4.4171025    1.2474735      8192000 
  672000   0.83247641   -4.4158628   -4.4158628   -3.1671485   0.10979913   -4.4158628    1.2487143      8192000 
  673000   0.83287521   -4.4141368   -4.4141368   -3.1648243   0.10882691   -4.4141368    1.2493125      8192000 
  674000   0.83323506   -4.4116091   -4.4116091   -3.1617568   0.10999894   -4.4116091    1.2498523      8192000 
  675000   0.83341816   -4.4086919   -4.4086919    -3.158565   0.11175878   -4.4086919    1.2501269      8192000 
  676000   0.83393974   -4.4070107   -4.4070107   -3.1561014   0.11190284   -4.4070107    1.2509093      8192000 
  677000   0.83484444   -4.4051419   -4.4051419   -3.1528756   0.11075037   -4.4051419    1.2522663      8192000 
  678000    0.8351843   -4.4026156   -4.4026156   -3.1498394   0.11162183   -4.4026156    1.2527761      8192000 
  679000   0.83599955    -4.400471    -4.400471    -3.146472    0.1123691    -4.400471     1.253999      8192000 
  680000   0.83610646    -4.398236    -4.398236   -3.1440767   0.11204987    -4.398236    1.2541594      8192000 
[...]
  839000   0.91575772   -4.0761068   -4.0761068   -2.7024706   0.14186557   -4.0761068    1.3736362      8192000 
  840000   0.91571839   -4.0736713   -4.0736713   -2.7000941   0.14224286   -4.0736713    1.3735772      8192000 
  841000   0.91716742   -4.0716864   -4.0716864   -2.6959356   0.14295704   -4.0716864    1.3757508      8192000 
  842000   0.91705828   -4.0686222   -4.0686222   -2.6930352   0.14675877   -4.0686222    1.3755871      8192000 
  843000   0.91841091   -4.0680747   -4.0680747   -2.6904587   0.14192849   -4.0680747     1.377616      8192000 
  844000   0.91793126   -4.0650823   -4.0650823   -2.6881858   0.14388599   -4.0650823    1.3768966      8192000 
  845000   0.91863303   -4.0637497   -4.0637497   -2.6858005    0.1424549   -4.0637497    1.3779492      8192000 
  846000   0.91907099   -4.0612969   -4.0612969   -2.6826907   0.14280747   -4.0612969    1.3786061      8192000 
  847000   0.91957648   -4.0591435   -4.0591435   -2.6797792   0.14441001   -4.0591435    1.3793644      8192000 
  848000   0.92030432   -4.0572241   -4.0572241    -2.676768   0.14328948   -4.0572241    1.3804561      8192000 
  849000    0.9209604   -4.0549969   -4.0549969   -2.6735566   0.14297717   -4.0549969    1.3814403      8192000 
  850000   0.92133749   -4.0523663   -4.0523663   -2.6703604   0.14425805   -4.0523663    1.3820059      8192000 
  851000   0.92217925    -4.050348    -4.050348   -2.6670794   0.14605636    -4.050348    1.3832685      8192000 
  852000   0.92227619   -4.0472534   -4.0472534   -2.6638395   0.14723157   -4.0472534    1.3834139      8192000 
  853000   0.92291738   -4.0461365   -4.0461365   -2.6617608   0.14345995   -4.0461365    1.3843757      8192000 
  854000   0.92309703   -4.0434737   -4.0434737   -2.6588285   0.14600257   -4.0434737    1.3846452      8192000 
  855000   0.92325173   -4.0416763   -4.0416763   -2.6567991   0.14412135   -4.0416763    1.3848773      8192000 
  856000    0.9238884   -4.0403425   -4.0403425   -2.6545103   0.14204448   -4.0403425    1.3858322      8192000 
  857000    0.9246739   -4.0384226   -4.0384226   -2.6514121   0.14378314   -4.0384226    1.3870105      8192000 
  858000   0.92479051   -4.0360925   -4.0360925   -2.6489071   0.14527722   -4.0360925    1.3871854      8192000 
  859000   0.92500336   -4.0335713   -4.0335713   -2.6460666   0.14689224   -4.0335713    1.3875047      8192000 
  860000   0.92606576    -4.031836    -4.031836   -2.6427377   0.14501185    -4.031836    1.3890983      8192000 
  861000   0.92671791    -4.029595    -4.029595   -2.6395185   0.14716176    -4.029595    1.3900765      8192000 
  862000   0.92725206   -4.0280054   -4.0280054   -2.6371276   0.14595887   -4.0280054    1.3908777      8192000 
  863000   0.92764864   -4.0253795   -4.0253795   -2.6339069   0.14843359   -4.0253795    1.3914726      8192000 
  864000   0.92759579    -4.023244    -4.023244   -2.6318506   0.14706066    -4.023244    1.3913933      8192000 
  865000   0.92819087   -4.0216212   -4.0216212   -2.6293352   0.14504992   -4.0216212    1.3922859      8192000 
  866000   0.92876418   -4.0198555   -4.0198555   -2.6267096   0.14603099   -4.0198555    1.3931459      8192000 
  867000   0.92926805   -4.0172441   -4.0172441   -2.6233423    0.1487511   -4.0172441    1.3939017      8192000 
  868000   0.93018439   -4.0149292   -4.0149292    -2.619653   0.14983876   -4.0149292    1.3952762      8192000 
  869000   0.93081347   -4.0130446   -4.0130446   -2.6168247   0.14946412   -4.0130446    1.3962199      8192000 
  870000   0.93124872    -4.011609    -4.011609   -2.6147363   0.14951706    -4.011609    1.3968727      8192000 
  871000   0.93206158   -4.0095961   -4.0095961   -2.6115041   0.14933815   -4.0095961     1.398092      8192000 
  872000   0.93212614   -4.0075041   -4.0075041   -2.6093153   0.15028994   -4.0075041    1.3981889      8192000 
  873000   0.93269946   -4.0054792   -4.0054792   -2.6064304   0.15001551   -4.0054792    1.3990488      8192000 
  874000   0.93328385   -4.0038133   -4.0038133   -2.6038879   0.14910321   -4.0038133    1.3999254      8192000 
  875000   0.93381131    -4.001325    -4.001325   -2.6006084   0.14944366    -4.001325    1.4007166      8192000 
  876000   0.93424305   -3.9985804   -3.9985804   -2.5972161   0.15097892   -3.9985804    1.4013642      8192000 
  877000   0.93452859   -3.9959963   -3.9959963   -2.5942038   0.15209841   -3.9959963    1.4017925      8192000 
  878000   0.93484569   -3.9949172   -3.9949172    -2.592649   0.15066044   -3.9949172    1.4022682      8192000 
  879000   0.93606443   -3.9933502   -3.9933502   -2.5892539   0.14986325   -3.9933502    1.4040963      8192000 
  880000    0.9363053   -3.9899531   -3.9899531   -2.5854956   0.15316642   -3.9899531    1.4044576      8192000 
  881000   0.93650168   -3.9881213   -3.9881213   -2.5833691   0.15170538   -3.9881213    1.4047522      8192000 
  882000   0.93735715   -3.9862802   -3.9862802   -2.5802448   0.15168459   -3.9862802    1.4060354      8192000 
  883000   0.93834305   -3.9845102   -3.9845102    -2.576996   0.15129103   -3.9845102    1.4075142      8192000 
  884000   0.93837408   -3.9820669   -3.9820669   -2.5745061   0.15083337   -3.9820669    1.4075608      8192000 
  885000   0.93846135   -3.9795703   -3.9795703   -2.5718786   0.15254501   -3.9795703    1.4076917      8192000 
  886000   0.93882904   -3.9773072   -3.9773072    -2.569064   0.15341872   -3.9773072    1.4082432      8192000 
  887000    0.9396281   -3.9756433   -3.9756433   -2.5662015   0.15306321   -3.9756433    1.4094418      8192000 
  888000   0.94018984   -3.9738191   -3.9738191   -2.5635347   0.15425041   -3.9738191    1.4102844      8192000 
  889000    0.9415189   -3.9720441   -3.9720441   -2.5597661   0.15327995   -3.9720441     1.412278      8192000 
  890000   0.94191231   -3.9696131   -3.9696131    -2.556745   0.15508119   -3.9696131    1.4128681      8192000 
  891000   0.94186319   -3.9671833   -3.9671833   -2.5543889   0.15567122   -3.9671833    1.4127944      8192000 
  892000   0.94202826   -3.9656472   -3.9656472   -2.5526052   0.15436816   -3.9656472     1.413042      8192000 
  893000   0.94227541   -3.9637229   -3.9637229   -2.5503101   0.15399794   -3.9637229    1.4134128      8192000 
  894000    0.9426785   -3.9610704   -3.9610704    -2.547053   0.15428661   -3.9610704    1.4140174      8192000 
  895000   0.94363543   -3.9590705   -3.9590705   -2.5436178   0.15649896   -3.9590705    1.4154528      8192000 
  896000   0.94430074   -3.9571312   -3.9571312   -2.5406805   0.15546132   -3.9571312    1.4164508      8192000 
  897000   0.94512237   -3.9553106   -3.9553106   -2.5376274   0.15721775   -3.9553106    1.4176832      8192000 
  898000   0.94474874   -3.9527621   -3.9527621   -2.5356393   0.15758099   -3.9527621    1.4171228      8192000 
  899000   0.94567436    -3.951484    -3.951484   -2.5329728   0.15502292    -3.951484    1.4185112      8192000 
  900000   0.94576358   -3.9495762   -3.9495762   -2.5309312   0.15689281   -3.9495762     1.418645      8192000 
  901000   0.94689504   -3.9479474   -3.9479474   -2.5276052   0.15624673   -3.9479474    1.4203422      8192000 
  902000   0.94714308   -3.9450141   -3.9450141   -2.5242999   0.15665002   -3.9450141    1.4207143      8192000 
  903000   0.94772434   -3.9428703   -3.9428703   -2.5212841   0.15866552   -3.9428703    1.4215861      8192000 
  904000   0.94850291   -3.9412981   -3.9412981   -2.5185441   0.15715628   -3.9412981     1.422754      8192000 
  905000   0.94866531    -3.939172    -3.939172   -2.5161744   0.15757888    -3.939172    1.4229976      8192000 
  906000   0.94910395   -3.9371956   -3.9371956     -2.51354   0.15654382   -3.9371956    1.4236556      8192000 
  907000   0.94975322   -3.9344553   -3.9344553   -2.5098258   0.15774141   -3.9344553    1.4246295      8192000 
  908000   0.95049007   -3.9327022   -3.9327022   -2.5069674   0.15642828   -3.9327022    1.4257348      8192000 
  909000   0.95077489   -3.9295019   -3.9295019   -2.5033399   0.15968867   -3.9295019     1.426162      8192000 
  910000   0.95125436   -3.9283479   -3.9283479   -2.5014667   0.15652606   -3.9283479    1.4268812      8192000 
  911000   0.95196135   -3.9258122   -3.9258122   -2.4978705   0.15928705   -3.9258122    1.4279417      8192000 
  912000   0.95234873   -3.9234307   -3.9234307    -2.494908   0.15996456   -3.9234307    1.4285227      8192000 
  913000   0.95291107   -3.9212973   -3.9212973   -2.4919311   0.15961349   -3.9212973    1.4293662      8192000 
  914000    0.9532668   -3.9189809   -3.9189809    -2.489081   0.16059096   -3.9189809    1.4298998      8192000 
  915000   0.95430195    -3.917399    -3.917399   -2.4859465   0.16095901    -3.917399    1.4314526      8192000 
  916000   0.95456878   -3.9147183   -3.9147183   -2.4828655   0.16240973   -3.9147183    1.4318528      8192000 
  917000    0.9555174   -3.9132735   -3.9132735   -2.4799977   0.16224949   -3.9132735    1.4332757      8192000 
  918000   0.95550933   -3.9110659   -3.9110659   -2.4778023   0.16158665   -3.9110659    1.4332636      8192000 
  919000   0.95555113     -3.90889     -3.90889   -2.4755637   0.16158703     -3.90889    1.4333263      8192000 
  920000   0.95563656   -3.9069257   -3.9069257   -2.4734713   0.16254221   -3.9069257    1.4334545      8192000 
  921000   0.95610899   -3.9053579   -3.9053579   -2.4711948   0.16297506   -3.9053579    1.4341631      8192000 
  922000   0.95664465   -3.9041548   -3.9041548   -2.4691882   0.16049136   -3.9041548    1.4349666      8192000 
  923000   0.95711738   -3.9016822   -3.9016822   -2.4660065   0.16190946   -3.9016822    1.4356757      8192000 
  924000   0.95788921   -3.8991711   -3.8991711   -2.4623377   0.16287762   -3.8991711    1.4368335      8192000 
  925000   0.95894047   -3.8975855   -3.8975855   -2.4591752   0.16344158   -3.8975855    1.4384103      8192000 
  926000    0.9599868   -3.8956208   -3.8956208   -2.4556409    0.1629322   -3.8956208    1.4399798      8192000 
  927000   0.95967865   -3.8929129   -3.8929129   -2.4533952   0.16611679   -3.8929129    1.4395176      8192000 
  928000   0.96068237   -3.8907269   -3.8907269   -2.4497037   0.16420211   -3.8907269    1.4410232      8192000 
  929000   0.96106486   -3.8894494   -3.8894494   -2.4478524   0.16260891   -3.8894494    1.4415969      8192000 
  930000   0.96168552   -3.8873769   -3.8873769    -2.444849   0.16177722   -3.8873769    1.4425279      8192000 
  931000   0.96161933    -3.884379    -3.884379   -2.4419504   0.16455738    -3.884379    1.4424286      8192000 
  932000   0.96173446   -3.8828201   -3.8828201   -2.4402188   0.16438477   -3.8828201    1.4426013      8192000 
  933000   0.96245644   -3.8807429   -3.8807429   -2.4370586   0.16521017   -3.8807429    1.4436843      8192000 
  934000   0.96294477   -3.8789601   -3.8789601   -2.4345433   0.16263214   -3.8789601    1.4444168      8192000 
  935000    0.9638737   -3.8769099   -3.8769099   -2.4310997   0.16453285   -3.8769099    1.4458102      8192000 
  936000   0.96402564     -3.87466     -3.87466   -2.4286219   0.16522778     -3.87466    1.4460381      8192000 
  937000   0.96457953   -3.8728902   -3.8728902   -2.4260213   0.16591465   -3.8728902    1.4468689      8192000 
  938000   0.96497404   -3.8708644   -3.8708644   -2.4234037   0.16572654   -3.8708644    1.4474607      8192000 
  939000   0.96615484   -3.8686772   -3.8686772   -2.4194453   0.16662827   -3.8686772    1.4492319      8192000 
  940000    0.9669497    -3.866834    -3.866834   -2.4164098   0.16648791    -3.866834    1.4504242      8192000 
  941000   0.96737055   -3.8642518   -3.8642518   -2.4131964   0.16851274   -3.8642518    1.4510555      8192000 
  942000   0.96778298   -3.8621683   -3.8621683   -2.4104942   0.16814402   -3.8621683    1.4516741      8192000 
  943000   0.96840621   -3.8605255   -3.8605255   -2.4079166   0.16931378   -3.8605255     1.452609      8192000 
  944000   0.96866943   -3.8580928   -3.8580928   -2.4050891   0.16828499   -3.8580928    1.4530038      8192000 
  945000   0.96949301   -3.8561397   -3.8561397   -2.4019006    0.1694676   -3.8561397    1.4542392      8192000 
  946000   0.96969038    -3.853929    -3.853929   -2.3993938   0.17139957    -3.853929    1.4545352      8192000 
  947000   0.97055666    -3.852642    -3.852642   -2.3968074   0.17031784    -3.852642    1.4558346      8192000 
  948000   0.96980986   -3.8495176   -3.8495176   -2.3948032   0.16916127   -3.8495176    1.4547144      8192000 
  949000   0.97107531   -3.8487362   -3.8487362   -2.3921236   0.16759952   -3.8487362    1.4566126      8192000 
  950000   0.97154461   -3.8467165   -3.8467165      -2.3894    0.1685561   -3.8467165    1.4573165      8192000 
  951000   0.97187042   -3.8442319   -3.8442319   -2.3864266   0.16829544   -3.8442319    1.4578053      8192000 
  952000    0.9717851   -3.8412787   -3.8412787   -2.3836015   0.17202368   -3.8412787    1.4576773      8192000 
  953000   0.97248485   -3.8394104   -3.8394104   -2.3806835   0.17027667   -3.8394104    1.4587269      8192000 
  954000   0.97312951    -3.837129    -3.837129   -2.3774351   0.17147663    -3.837129    1.4596939      8192000 
  955000   0.97352205   -3.8356536   -3.8356536   -2.3753709   0.16837104   -3.8356536    1.4602827      8192000 
  956000   0.97361135   -3.8336957   -3.8336957   -2.3732791   0.16863771   -3.8336957    1.4604167      8192000 
  957000   0.97441549   -3.8314549   -3.8314549    -2.369832   0.17059629   -3.8314549    1.4616229      8192000 
  958000   0.97475614   -3.8293243   -3.8293243   -2.3671904   0.17086829   -3.8293243    1.4621338      8192000 
  959000    0.9755421   -3.8276873   -3.8276873   -2.3643745   0.17067869   -3.8276873    1.4633128      8192000 
  960000   0.97591452   -3.8244462   -3.8244462   -2.3605748    0.1751612   -3.8244462    1.4638714      8192000 
  961000   0.97656614   -3.8229013   -3.8229013   -2.3580525   0.17420208   -3.8229013    1.4648488      8192000 
  962000   0.97679411   -3.8208671   -3.8208671   -2.3556763    0.1723957   -3.8208671    1.4651908      8192000 
  963000   0.97697911    -3.818937    -3.818937   -2.3534687    0.1719857    -3.818937    1.4654683      8192000 
  964000   0.97768209   -3.8172019   -3.8172019   -2.3506791   0.17448485   -3.8172019    1.4665228      8192000 
  965000    0.9782222   -3.8148152   -3.8148152   -2.3474822   0.17529943   -3.8148152    1.4673329      8192000 
  966000   0.97966631   -3.8133552   -3.8133552   -2.3438562   0.17368858   -3.8133552    1.4694991      8192000 
  967000   0.98014286   -3.8111848   -3.8111848   -2.3409709   0.17448993   -3.8111848    1.4702139      8192000 
  968000   0.98039135   -3.8092838   -3.8092838   -2.3386972   0.17322154   -3.8092838    1.4705867      8192000 
  969000   0.98014807   -3.8069936   -3.8069936   -2.3367719   0.17516184   -3.8069936    1.4702217      8192000 
  970000    0.9815175   -3.8055444   -3.8055444   -2.3332685   0.17426317   -3.8055444    1.4722759      8192000 
  971000   0.98128254   -3.8030683   -3.8030683   -2.3311449   0.17513943   -3.8030683    1.4719234      8192000 
  972000    0.9819462   -3.8003961   -3.8003961   -2.3274771   0.17601508   -3.8003961    1.4729189      8192000 
  973000    0.9827847   -3.7992894   -3.7992894   -2.3251127   0.17447429   -3.7992894    1.4741767      8192000 
  974000    0.9834186   -3.7972257   -3.7972257   -2.3220982   0.17655616   -3.7972257    1.4751275      8192000 
  975000   0.98365028   -3.7952565   -3.7952565   -2.3197815   0.17675787   -3.7952565    1.4754751      8192000 
  976000   0.98469417   -3.7935425   -3.7935425   -2.3165017   0.17542721   -3.7935425    1.4770409      8192000 
  977000   0.98536549   -3.7907947   -3.7907947   -2.3127469    0.1773988   -3.7907947    1.4780479      8192000 
  978000   0.98567368   -3.7886689   -3.7886689   -2.3101588    0.1776905   -3.7886689    1.4785101      8192000 
  979000   0.98582255   -3.7866238   -3.7866238   -2.3078904   0.17739328   -3.7866238    1.4787335      8192000 
  980000    0.9860976   -3.7839657   -3.7839657   -2.3048197   0.17730315   -3.7839657     1.479146      8192000 
  981000   0.98675791   -3.7819538   -3.7819538   -2.3018173   0.17578884   -3.7819538    1.4801365      8192000 
  982000   0.98767021   -3.7803762   -3.7803762   -2.2988713   0.17846391   -3.7803762    1.4815049      8192000 
  983000    0.9880853   -3.7779616   -3.7779616    -2.295834    0.1791098   -3.7779616    1.4821276      8192000 
  984000   0.98865739   -3.7759273   -3.7759273   -2.2929416   0.17850606   -3.7759273    1.4829857      8192000 
  985000   0.98860344   -3.7734487   -3.7734487   -2.2905439   0.17924499   -3.7734487    1.4829048      8192000 
  986000   0.98918169   -3.7715796   -3.7715796   -2.2878074    0.1797539   -3.7715796    1.4837722      8192000 
  987000   0.98954646   -3.7692141   -3.7692141   -2.2848947   0.18129807   -3.7692141    1.4843193      8192000 
  988000   0.99035435   -3.7674204   -3.7674204   -2.2818893   0.18040799   -3.7674204    1.4855311      8192000 
  989000   0.99106705   -3.7656092   -3.7656092    -2.279009   0.17982029   -3.7656092    1.4866002      8192000 
  990000   0.99099473   -3.7636303   -3.7636303   -2.2771386   0.17870583   -3.7636303    1.4864917      8192000 
  991000    0.9914271   -3.7612492   -3.7612492    -2.274109   0.18091042   -3.7612492    1.4871403      8192000 
  992000   0.99250624   -3.7593338   -3.7593338   -2.2705748    0.1805751   -3.7593338     1.488759      8192000 
  993000    0.9923326   -3.7566563   -3.7566563   -2.2681578    0.1802683   -3.7566563    1.4884985      8192000 
  994000   0.99324837   -3.7549964   -3.7549964   -2.2651242   0.18140309   -3.7549964    1.4898722      8192000 
  995000   0.99365757   -3.7522744   -3.7522744   -2.2617885   0.18291897   -3.7522744     1.490486      8192000 
  996000   0.99481963   -3.7495806   -3.7495806   -2.2573515   0.18510946   -3.7495806    1.4922291      8192000 
  997000   0.99573085   -3.7482058   -3.7482058   -2.2546099   0.18538032   -3.7482058    1.4935959      8192000 
  998000   0.99614821   -3.7468367   -3.7468367   -2.2526147   0.18254189   -3.7468367    1.4942219      8192000 
  999000   0.99640516   -3.7449468   -3.7449468   -2.2503394   0.18159241   -3.7449468    1.4946074      8192000 
 1000000   0.99648984   -3.7426556   -3.7426556   -2.2479212   0.18213161   -3.7426556    1.4947344      8192000 
Loop time of 13886.6 on 192 procs for 1000000 steps with 3993600 atoms

Performance: 15554.531 tau/day, 72.012 timesteps/s
99.4% CPU use with 192 MPI tasks x 1 OpenMP threads

MPI task timing breakdown:
Section |  min time  |  avg time  |  max time  |%varavg|  %CPU | %total
-----------------------------------------------------------------------
Pair    | 7201.5     | 8111.7     | 8667.8     | 349.2 |  99.5 | 58.41
Bond    | 0.77843    | 0.89757    | 1.0114     |   4.5 | 100.0 |  0.01
Neigh   | 1806.4     | 2012.7     | 2121.8     | 158.4 |  99.6 | 14.49
Comm    | 1391.7     | 2037.7     | 3142.5     | 829.1 |  99.1 | 14.67
Output  | 58.636     | 59.106     | 59.113     |   0.4 |  98.7 |  0.43
Modify  | 1131.7     | 1225.8     | 1390.7     | 112.6 |  99.1 |  8.83
Other   |            | 438.7      |            |       |       |  3.16

Nlocal:        20800.0 ave       21589 max       20222 min
Histogram: 2 3 5 62 101 12 2 1 3 1
Nghost:        13069.4 ave       14065 max       10610 min
Histogram: 17 31 0 0 0 0 0 0 44 100
Neighs:        655028.0 ave      703244 max      469480 min
Histogram: 12 11 1 0 0 0 0 26 47 95

Total # of neighbors = 1.2576532e+08
Ave neighs/atom = 31.491716
Ave special neighs/atom = 0.0000000
Neighbor list builds = 61019
Dangerous builds = 0
System init for write_data ...
WARNING: Not all mixed pair coeffs generated from mixing. Use write_data with 'pair ij' option to store all pair coeffs. (src/write_data.cpp:312)
Total wall time: 3:51:36
