LAMMPS (29 Oct 2020)
  using 1 OpenMP thread(s) per MPI task
Reading data file ...
  orthogonal box = (-100.00000 -100.00000 -100.00000) to (100.00000 100.00000 100.00000)
  1 by 1 by 2 MPI processor grid
  reading atoms ...
  1 atoms
  1 bodies
  read_data CPU = 0.012 seconds
Replicating atoms ...
  orthogonal box = (-100.00000 -100.00000 -100.00000) to (1300.0000 1300.0000 1300.0000)
  1 by 1 by 2 MPI processor grid
  343 atoms
  replicate CPU = 0.001 seconds
Neighbor list info ...
  update every 1 steps, delay 0 steps, check yes
  max neighbors/atom: 2000, page size: 100000
  master list distance cutoff = 87.10254
  ghost atom cutoff = 87.10254
  binsize = 43.55127, bins = 33 33 33
  1 neighbor lists, perpetual/occasional/extra = 1 0 0
  (1) pair body/rounded/polyhedron, perpetual
      attributes: half, newton on
      pair build: half/bin/atomonly/newton
      stencil: half/bin/3d/newton
      bin: standard
Setting up Verlet run ...
  Unit style    : nano
  Current step  : 0
  Time step     : 0.001
Per MPI rank memory allocation (min/avg/max) = 9.498 | 9.499 | 9.500 Mbytes
Step KinEng PotEng TotEng c_p c_t 
       0     2124.821            0     2124.821 5.1623444e-07          300 
  100000    1.9037745   -2308.1916   -2306.2878 0.0011070668   0.26879082 
  200000    8.8938689   -46233.336   -46224.442 0.0021059435    1.2557108 
  300000     43.07218   -44776.033   -44732.961 0.0029998399    6.0812907 
  400000    7.3902801   -90251.617   -90244.226 0.0041033858    1.0434216 
  500000    8.6074484   -57071.883   -57063.275 0.0050494743    1.2152716 
  600000    70.734666   -22349.081   -22278.346 0.0026670026    9.9869119 
  700000    4.2652276   -74106.018   -74101.753 0.0074275954   0.60220051 
  800000     43.52307    -99618.48   -99574.957 0.0078005703    6.1449511 
  900000    23.310484   -123314.02   -123290.71  0.010630934    3.2911691 
 1000000    21.349109   -134545.53   -134524.18  0.010236857    3.0142457 
 1100000    15.413047   -140974.38   -140958.97  0.010389532    2.1761429 
 1200000    217.07306   -74520.912   -74303.839 0.0069203507     30.64819 
 1300000    6.3555548   -145301.41   -145295.05  0.013474846    0.8973304 
 1400000    9.2062696   -136090.75   -136081.54  0.014423963    1.2998182 
 1500000    42.391541   -158524.06   -158481.67  0.016499417    5.9851924 
 1600000    26.785544   -161026.85   -161000.06   0.01570841    3.7818071 
 1700000    8.2504463   -169239.19   -169230.94  0.017966488     1.164867 
 1800000    65.368578   -135259.96   -135194.59  0.012840184    9.2292827 
 1900000    4.0706688   -172116.88    -172112.8  0.017683761   0.57473107 
 2000000    3.5979349   -189131.67   -189128.07  0.020348608   0.50798655 
 2100000    3.0188096   -187886.52    -187883.5  0.021959966   0.42622079 
 2200000    2.7206747   -192697.12    -192694.4  0.022686486   0.38412762 
 2300000    2.1788427   -197238.02   -197235.84   0.02344486   0.30762724 
 2400000    20.129283   -194817.42    -194797.3  0.024073074    2.8420206 
 2500000    23.109284   -189985.01    -189961.9    0.0242293     3.262762 
 2600000    23.504944   -198915.66   -198892.15  0.027094601    3.3186247 
 2700000    32.720082   -170962.67   -170929.95  0.025231641     4.619695 
 2800000    16.691391    -188417.9   -188401.21  0.028196769    2.3566302 
 2900000    3.9833232   -199665.77   -199661.79  0.029561907   0.56239889 
 3000000    15.062342   -202067.43   -202052.36  0.031499103    2.1266275 
 3100000    176.66619   -201485.08   -201308.42  0.026154537    24.943211 
 3200000    6.1144623   -202704.85   -202698.73  0.031338308   0.86329094 
 3300000    7.7737303   -202440.92   -202433.15  0.030627271    1.0975603 
 3400000    4.8726334      -203448   -203443.13  0.032517344   0.68795915 
 3500000    588.83475   -160543.15   -159954.32  0.012011247    83.136616 
 3600000    47.479595   -202323.94   -202276.47  0.044318312    6.7035665 
 3700000    7.2261176   -205653.59   -205646.36  0.035496023    1.0202437 
 3800000    36.488197   -206445.14   -206408.65  0.042650115     5.151709 
 3900000    933.47427   -196934.84   -196001.36  0.066083987    131.79571 
 4000000    2.4605503   -200836.26    -200833.8   0.03416678   0.34740108 
 4100000    19.664658   -204634.83   -204615.16  0.037526298    2.7764209 
 4200000    2.2450115   -204023.05    -204020.8  0.042416165    0.3169695 
 4300000    14.751173   -208130.91   -208116.16  0.047714239     2.082694 
 4400000    5.6220177   -211280.08   -211274.46  0.041062026   0.79376349 
 4500000    4.2884928   -196028.48    -196024.2  0.035557093    0.6054853 
 4600000     24.49801   -190578.33   -190553.83  0.024786999     3.458834 
 4700000    3.4549416   -211616.11   -211612.65  0.046384715   0.48779755 
 4800000    3.0503499   -197995.01   -197991.96   0.03477221   0.43067391 
 4900000    36.894987   -183405.29   -183368.39  0.016294773     5.209143 
 5000000    3.0544239   -203705.55    -203702.5  0.035588335   0.43124912 
 5100000    450.26293   -188534.74   -188084.48  0.035215341    63.571888 
 5200000    92.724411    -199192.2   -199099.47  0.032910654    13.091608 
 5300000    46.797885   -204388.88   -204342.08  0.077463711    6.6073169 
 5400000   0.62487047   -211052.68   -211052.06  0.047911971  0.088224441 
 5500000    88.178645   -205739.48   -205651.31  0.097720972    12.449799 
 5600000    2.5795464   -208277.12   -208274.54  0.053892996   0.36420193 
 5700000    3.1337648   -207279.02   -207275.89  0.060031975   0.44245114 
 5800000   0.43033741   -206348.86   -206348.43  0.049928932  0.060758635 
 5900000   0.22816096   -200217.31   -200217.09  0.042306703  0.032213673 
 6000000     5.179497   -168260.12   -168254.94   0.01875612   0.73128471 
 6100000    22.062061   -196278.97    -196256.9  0.058100279    3.1149063 
 6200000   0.05588237   -206525.75    -206525.7  0.046310451 0.0078899405 
 6300000    2.6343301   -202029.63      -202027   0.10322758   0.37193677 
 6400000   0.79753572   -197329.48   -197328.69  0.036792906   0.11260277 
 6500000   0.20834726   -202103.73   -202103.52  0.096900057  0.029416209 
 6600000   0.19470774   -188764.62   -188764.43  0.034462566  0.027490467 
 6700000   0.22159904   -183957.05   -183956.83  0.055500343  0.031287206 
 6800000   0.77600291   -190247.26   -190246.49   0.06648489   0.10956258 
 6900000    2.7188206   -186338.63   -186335.91  0.063961028   0.38386584 
 7000000    95.949434   -189882.11   -189786.16   0.10634171    13.546944 
 7100000    1213.2512   -193635.21   -192421.96  0.074938464    171.29696 
 7200000    550.73215   -196801.26   -196250.53  0.046433852    77.756972 
 7300000    58.338388   -188857.98   -188799.64  0.069113851    8.2367017 
 7400000    71.871529   -190280.21   -190208.34  0.060096888    10.147424 
 7500000    726.81151   -178445.45   -177718.64  0.051112435    102.61733 
 7600000    1277.7004   -181429.76   -180152.06  0.044832389    180.39644 
 7700000    1060.8109   -143814.32   -142753.51   0.11155433    149.77416 
 7800000    1902.9688   -61993.915   -60090.946   0.14572837    268.67706 
 7900000    20353.216    15568.658    35921.874  0.023382078    2873.6373 
 8000000    32900.866   -33492.754   -591.88735  0.012855421    4645.2195 
 8100000    3566.7718   -4709.4494   -1142.6775  0.063386701    503.58669 
 8200000      11035.6   -11029.029    6.5707182  0.039536179    1558.0984 
 8300000     2799.099    44777.415    47576.514  0.078737919    395.20021 
 8400000    1484.5266    55061.501    56546.027  0.074838021    209.59788 
 8500000    2356.4059    71356.796    73713.202  0.072632771     332.6971 
 8600000    25360.968    41652.229    67013.197   0.13783005    3580.6737 
 8700000    4118.9414    65867.547    69986.488  0.064282868    581.54661 
 8800000    2324.8938     110554.6    112879.49   0.11922052    328.24796 
 8900000    2224.6369    120590.74    122815.37  0.089432621    314.09285 
 9000000    2907.9904    102311.03    105219.02    0.0760392    410.57442 
 9100000    5297.7035    115927.14    121224.85  0.050302937     747.9741 
 9200000     5762.617    127779.17    133541.78  0.080116861    813.61447 
 9300000    1533.2984    159519.13    161052.43   0.09249536     216.4839 
 9400000    1836.2782    171336.88    173173.16   0.11411455    259.26112 
 9500000    5199.8415    116289.35    121489.19  0.080837128    734.15713 
 9600000     5820.121       163433    169253.12   0.20684953    821.73338 
 9700000    2719.0597     122089.4    124808.46  0.091938089     383.8996 
------------------------------------------------------------
A process or daemon was unable to complete a TCP connection
to another process:
  Local host:    scc032
  Remote host:   scc113
This is usually caused by a firewall on the remote host. Please
check that any firewall (e.g., iptables) has been disabled and
try again.
------------------------------------------------------------
