LAMMPS (24 Dec 2020)
OMP_NUM_THREADS environment is not set. Defaulting to 1 thread. (src/comm.cpp:94)
  using 1 OpenMP thread(s) per MPI task
#Read the equilibrated lj fluid and add nanocubes

units           lj
atom_style      full
atom_modify     map array first cubes
dimension       3
boundary        p p f
pair_style      lj/cut/opt 2.5

variable        sigma           equal 1.0
variable        epsilon         equal 1.0
read_restart	restart.dat.10000000
Reading restart file ...
  restart file = 24 Dec 2020, LAMMPS = 24 Dec 2020
WARNING: Restart file used different # of processors: 288 vs. 768 (src/read_restart.cpp:697)
  restoring atom style full from restart
  orthogonal box = (0.0000000 0.0000000 0.0000000) to (120.00000 120.00000 240.00000)
  6 by 8 by 16 MPI processor grid
  restoring pair style lj/cut/opt from restart
  1553347 atoms
Finding 1-2 1-3 1-4 neighbors ...
  special bond factors lj:    0        0        0       
  special bond factors coul:  0        0        0       
     0 = max # of 1-2 neighbors
     0 = max # of 1-3 neighbors
     0 = max # of 1-4 neighbors
     1 = max # of special neighbors
  special bonds CPU = 7.913 seconds
  read_restart CPU = 9.381 seconds

group		solvent type 1
1553347 atoms in group solvent

read_data	data2_450.cubes group cubes add append
Reading data file ...
  orthogonal box = (0.0000000 0.0000000 0.0000000) to (120.00000 120.00000 240.00000)
  6 by 8 by 16 MPI processor grid
  reading atoms ...
  560070 atoms
  reading velocities ...
  560070 velocities
Finding 1-2 1-3 1-4 neighbors ...
  special bond factors lj:    0        0        0       
  special bond factors coul:  0        0        0       
     0 = max # of 1-2 neighbors
     0 = max # of 1-3 neighbors
     0 = max # of 1-4 neighbors
     1 = max # of special neighbors
  special bonds CPU = 0.392 seconds
  read_data CPU = 3.771 seconds

group 		hull  type 2
218540 atoms in group hull
group 		dummy type 3
341530 atoms in group dummy

neighbor      0.4 bin
neigh_modify  exclude molecule/intra cubes


pair_modify   shift yes

pair_coeff    1 1 1.0 1.0 #solvent
pair_coeff    2 2 1.0 1.0 1.12 #np
pair_coeff    3 3 0.0 0.0 0.0 #dummy
pair_coeff    2 3 0.0 0.0 0.0 #np dummy
pair_coeff    1 2 ${sol} 1.0  #np solvent
pair_coeff    1 2 .575 1.0  
pair_coeff    1 3 0.0 0.0 2.5 #dummy solvent

# delete solvent where the cubes are
delete_atoms  overlap 1.0 solvent cubes
System init for delete_atoms ...
Unused restart file peratom fix info:
  fix style: STORE, fix ID: bin1_COMPUTE_STORE
Neighbor list info ...
  update every 1 steps, delay 10 steps, check yes
  max neighbors/atom: 2000, page size: 100000
  master list distance cutoff = 2.9
  ghost atom cutoff = 2.9
  binsize = 1.45, bins = 83 83 166
  2 neighbor lists, perpetual/occasional/extra = 1 1 0
  (1) command delete_atoms, occasional
      attributes: full, newton on
      pair build: full/bin
      stencil: full/bin/3d
      bin: standard
  (2) pair lj/cut/opt, perpetual
      attributes: half, newton on
      pair build: half/bin/newton
      stencil: half/bin/3d/newton
      bin: standard
WARNING: Delete_atoms cutoff > minimum neighbor cutoff (src/delete_atoms.cpp:307)
WARNING: Ignoring 'compress yes' for molecular system (src/delete_atoms.cpp:125)
Deleted 399208 atoms, new total = 1714209

pair_coeff    1 1 1.0 1.0 #solvent
pair_coeff    2 2 1.0 1.0 1.12 #np
pair_coeff    3 3 0.0 0.0 0.0 #dummy
pair_coeff    2 3 0.0 0.0 0.0 #np dummy
pair_coeff    1 2 ${sol} 1.0  #np solvent
pair_coeff    1 2 .575 1.0  
pair_coeff    1 3 0.0 0.0 0.0 #dummy solvent


comm_modify   mode multi cutoff/multi 1 2.5 cutoff/multi 2 2.5 cutoff/multi 3 6.96

reset_timestep 	0

balance 	1.05 shift z 10 1.05
Balancing ...
Neighbor list info ...
  update every 1 steps, delay 10 steps, check yes
  max neighbors/atom: 2000, page size: 100000
  master list distance cutoff = 2.9
  ghost atom cutoff = 6.96
  binsize = 1.45, bins = 83 83 166
  1 neighbor lists, perpetual/occasional/extra = 1 0 0
  (1) pair lj/cut/opt, perpetual
      attributes: half, newton on
      pair build: half/bin/newton
      stencil: half/bin/3d/newton
      bin: standard
 rebalancing time: 0.014 seconds
  iteration count = 4
  initial/final maximal load/proc = 3285.0000 3272.0000
  initial/final imbalance factor  = 1.4717459 1.4659216
  x cuts: 0.0000000 0.16666667 0.33333333 0.50000000 0.66666667 0.83333333 1.0000000
  y cuts: 0.0000000 0.12500000 0.25000000 0.37500000 0.50000000 0.62500000 0.75000000 0.87500000 1.0000000
  z cuts: 0.0000000 0.050781250 0.097656250 0.14453125 0.19140625 0.24218750 0.28906250 0.33593750 0.38281250 0.43359375 0.47265625 0.53515625 0.57421875 0.63671875 0.67187500 0.73437500 1.0000000

####################### WALLS ###########################

variable       epsilonWall equal 2*${epsilon}
variable       epsilonWall equal 2*1
variable       repulsive   equal   0.7147*${sigma}
variable       repulsive   equal   0.7147*1
variable       full	   equal   3*${sigma}
variable       full	   equal   3*1
region         lowWall block EDGE EDGE EDGE EDGE EDGE 2

fix            topWall all wall/lj93 zhi EDGE 	       ${epsilonWall} ${sigma} ${repulsive} units box
fix            topWall all wall/lj93 zhi EDGE 	       2 ${sigma} ${repulsive} units box
fix            topWall all wall/lj93 zhi EDGE 	       2 1 ${repulsive} units box
fix            topWall all wall/lj93 zhi EDGE 	       2 1 0.7147 units box
fix            lowSol solvent wall/lj93 zlo EDGE                ${epsilonWall} ${sigma} ${full} units box
fix            lowSol solvent wall/lj93 zlo EDGE                2 ${sigma} ${full} units box
fix            lowSol solvent wall/lj93 zlo EDGE                2 1 ${full} units box
fix            lowSol solvent wall/lj93 zlo EDGE                2 1 3 units box
fix 	       lowCub cubes wall/lj93 zlo EDGE                ${epsilonWall} ${sigma} ${repulsive} units box
fix 	       lowCub cubes wall/lj93 zlo EDGE                2 ${sigma} ${repulsive} units box
fix 	       lowCub cubes wall/lj93 zlo EDGE                2 1 ${repulsive} units box
fix 	       lowCub cubes wall/lj93 zlo EDGE                2 1 0.7147 units box


###################### COMPUTES ##########################

compute        bin1 solvent chunk/atom bin/1d z lower 1.0 units box
compute        bin3 solvent chunk/atom bin/3d x lower 5.0 y lower 5.0 z lower 5.0 units box

compute 	pe solvent 	   pe/atom
compute 	pe2 all 	   pe/atom

######################  FIXES ############################


fix             peclet solvent ave/chunk 10 10 100000 bin1 density/number norm                  none ave one file density.profile

fix              temp solvent ave/chunk 10 10 100000 bin1 temp norm                  none ave one file temp.profile

fix 		 dens solvent ave/chunk 10 10 500000 bin3 density/number norm 		 none ave one file dens3.profile

fix 		pe solvent ave/chunk 1 1 500000 bin3 c_pe norm none ave one file pe3.profile
fix             1 cubes rigid/nve/small molecule
  create bodies CPU = 0.057 seconds
  490 rigid bodies with 560070 atoms
  6.9554839 = max distance from body owner to body atom

fix             2 solvent nve# temp ${temp} ${temp} 10


## Thermostat
region          regthermo block EDGE EDGE EDGE EDGE 0 15
group           thermo dynamic solvent region regthermo every 1000
dynamic group thermo defined
fix             3 thermo langevin ${temp} ${temp} 10 156453
fix             3 thermo langevin 1.0 ${temp} 10 156453
fix             3 thermo langevin 1.0 1.0 10 156453


#### Load balancing

fix             bal all balance 1000 1.05 shift z 10 1.05

############### Diagnostics and computes ###################


compute        	com cubes          rigid/local   1 mol x y z
compute        	quat cubes         rigid/local   1 mol quatw quati quatj quatk

compute 	cc2 cubes 	   chunk/atom 	 molecule
compute 	msd cubes 	   msd/chunk 	 cc2

fix 		msd all ave/time  1 1 10000 c_msd[*] file dump.msd ave one mode vector

dump            1 all custom 500000 dump.lammpstrj id mol type x y z vx vy vz c_pe2
dump		sol  solvent custom 500000 dump.soltrj id x y z vx vy vz c_pe
dump		cubetrj cubes custom 500000 cubes.lammpstrj id mol type x y z vx vy vz
#dump            com cubes local 100000 dump.*.xyz c_com[*]
#dump	        xyz hull xyz 100000 cubes.xyz
#dump            quat cubes      local 100000 dump.*.quat c_quat[*]
dump		order cubes 	local 500000 dump.*.order c_com[*] c_quat[*]
#dump		mol cubes molfile 10000 mol.xyz xyz


dump            2 all image 500000 image.*.png type type zoom 1.5 size 1280 720
dump_modify     2 pad 8
dump		image cubes image 500000 image_cubes.*.png type type zoom 1.5 size 1280 720
dump_modify	image pad 8
dump            3 all movie 10000 movie.avi type type zoom 1.5 size 1280 720
dump		4 cubes movie 10000 movie_cubes.avi type type size 1280 720


thermo          1000
thermo_style    custom step temp epair evdwl etotal press pe ke atoms

restart         1000000 restart.dat
timestep        0.005
timer           full
New timer settings: style=full  mode=nosync  timeout=off

run 		10000000
Per MPI rank memory allocation (min/avg/max) = 15.66 | 21.45 | 23.39 Mbytes
Step Temp E_pair E_vdwl TotEng Press PotEng KinEng Atoms 
       0    1.0088699   -2.1263234   -2.1263234   -1.1065845 -0.082226328   -2.1263234    1.0197389  1714209 
    1000    1.0068573   -2.1244557   -2.1244557    -1.106751  0.072570511   -2.1244557    1.0177047  1714209 
    2000    1.0057546   -2.1236233   -2.1236233   -1.1070332  0.075590167   -2.1236233    1.0165901  1714209 
    3000    1.0056945   -2.1233783   -2.1233783   -1.1068489  0.072636793   -2.1233783    1.0165294  1714209 
    4000    1.0042963    -2.122347    -2.122347    -1.107231  0.074325752    -2.122347     1.015116  1714209 
    5000    1.0043174   -2.1226666   -2.1226666   -1.1075293  0.068995275   -2.1226666    1.0151374  1714209 
    6000    1.0037813    -2.122227    -2.122227   -1.1076314  0.067336383    -2.122227    1.0145956  1714209 
    7000    1.0036937   -2.1222128   -2.1222128   -1.1077058  0.067928767   -2.1222128    1.0145069  1714209 
    8000    1.0034624   -2.1216048   -2.1216048   -1.1073316  0.071370572   -2.1216048    1.0142732  1714209 
    9000    1.0028222   -2.1208387   -2.1208387   -1.1072126  0.066504565   -2.1208387    1.0136261  1714209 
   10000    1.0017832   -2.1198936   -2.1198936   -1.1073176  0.066803915   -2.1198936    1.0125759  1714209 
   11000     1.001422   -2.1198422   -2.1198422   -1.1076314  0.063603002   -2.1198422    1.0122108  1714209 
   12000     1.001821   -2.1203003   -2.1203003   -1.1076862  0.066403059   -2.1203003    1.0126141  1714209 
   13000    1.0004615   -2.1188753   -2.1188753   -1.1076354  0.061184652   -2.1188753    1.0112399  1714209 
   14000    0.9998977   -2.1184639   -2.1184639   -1.1077938  0.064690906   -2.1184639    1.0106701  1714209 
   15000    0.9989376   -2.1177005   -2.1177005   -1.1080009  0.063849281   -2.1177005    1.0096996  1714209 
   16000   0.99924659   -2.1177252   -2.1177252   -1.1077132   0.06434101   -2.1177252     1.010012  1714209 
   17000    1.0002064   -2.1184418   -2.1184418   -1.1074597   0.06346878   -2.1184418    1.0109821  1714209 
   18000   0.99905823   -2.1174083   -2.1174083   -1.1075867  0.060199655   -2.1174083    1.0098216  1714209 
   19000   0.99882596   -2.1173662   -2.1173662   -1.1077794  0.060179083   -2.1173662    1.0095868  1714209 
   20000   0.99858756   -2.1171513   -2.1171513   -1.1078055  0.061098949   -2.1171513    1.0093458  1714209 
   21000   0.99853996   -2.1165791   -2.1165791   -1.1072814  0.060477077   -2.1165791    1.0092977  1714209 
   22000   0.99940188   -2.1166286   -2.1166286   -1.1064596  0.063715507   -2.1166286    1.0101689  1714209 
   23000   0.99834819    -2.115271    -2.115271   -1.1061671  0.063692631    -2.115271    1.0091039  1714209 
   24000   0.99825411   -2.1153411   -2.1153411   -1.1063323  0.060970146   -2.1153411    1.0090088  1714209 
   25000   0.99763453   -2.1149146   -2.1149146   -1.1065321  0.059326483   -2.1149146    1.0083825  1714209 
   26000   0.99813027   -2.1149924   -2.1149924   -1.1061088  0.058968099   -2.1149924    1.0088836  1714209 
   27000   0.99778508   -2.1149745   -2.1149745   -1.1064398  0.061718026   -2.1149745    1.0085347  1714209 
   28000   0.99803982   -2.1150101   -2.1150101   -1.1062179  0.057547431   -2.1150101    1.0087922  1714209 
   29000   0.99761241   -2.1140518   -2.1140518   -1.1056916  0.063985239   -2.1140518    1.0083602  1714209 
   30000   0.99808219   -2.1144688   -2.1144688   -1.1056338  0.063420642   -2.1144688     1.008835  1714209 
   31000    0.9980715   -2.1139777   -2.1139777   -1.1051535  0.059726403   -2.1139777    1.0088242  1714209 
   32000   0.99922642   -2.1150623   -2.1150623   -1.1050707  0.061599274   -2.1150623    1.0099916  1714209 
   33000   0.99762306   -2.1133709   -2.1133709       -1.105  0.059772546   -2.1133709    1.0083709  1714209 
   34000   0.99872714    -2.113999    -2.113999   -1.1045121   0.05952886    -2.113999    1.0094869  1714209 
   35000   0.99907736   -2.1142881   -2.1142881   -1.1044471  0.058713519   -2.1142881    1.0098409  1714209 
   36000   0.99842979   -2.1133905   -2.1133905   -1.1042042  0.059024251   -2.1133905    1.0091864  1714209 
   37000    0.9981599   -2.1132543   -2.1132543   -1.1043408  0.055106048   -2.1132543    1.0089136  1714209 
   38000   0.99991773   -2.1147989   -2.1147989   -1.1041085  0.061423098   -2.1147989    1.0106903  1714209 
   39000    1.0001789   -2.1149265   -2.1149265   -1.1039722  0.057790103   -2.1149265    1.0109543  1714209 
   40000   0.99935806   -2.1139958   -2.1139958   -1.1038712  0.059929509   -2.1139958    1.0101246  1714209 
   41000    0.9989279   -2.1139671   -2.1139671   -1.1042773  0.064426017   -2.1139671    1.0096898  1714209 
   42000   0.99830838    -2.113245    -2.113245   -1.1041813  0.067612772    -2.113245    1.0090636  1714209 
   43000   0.99963947   -2.1143008   -2.1143008   -1.1038917  0.061956722   -2.1143008    1.0104091  1714209 
   44000   0.99949186   -2.1141905   -2.1141905   -1.1039307  0.062516812   -2.1141905    1.0102599  1714209 
   45000     1.001352   -2.1161782   -2.1161782   -1.1040382  0.060916068   -2.1161782      1.01214  1714209 
   46000    1.0003654   -2.1153092   -2.1153092   -1.1041664  0.064007644   -2.1153092    1.0111428  1714209 
   47000    1.0009723   -2.1157765   -2.1157765   -1.1040203  0.059960831   -2.1157765    1.0117562  1714209 
   48000    1.0001044   -2.1148634   -2.1148634   -1.1039844  0.065590339   -2.1148634     1.010879  1714209 
   49000    1.0000553   -2.1151478   -2.1151478   -1.1043184  0.064155788   -2.1151478    1.0108294  1714209 
   50000   0.99946121   -2.1145693   -2.1145693   -1.1043404  0.065934951   -2.1145693    1.0102289  1714209 
   51000    1.0002509    -2.115259    -2.115259   -1.1042319  0.061187806    -2.115259    1.0110271  1714209 
   52000     1.000911   -2.1162068   -2.1162068   -1.1045125  0.063350701   -2.1162068    1.0116943  1714209 
   53000    1.0015359   -2.1169601   -2.1169601   -1.1046342  0.065060521   -2.1169601     1.012326  1714209 
   54000     1.001194   -2.1168612   -2.1168612   -1.1048809  0.060266436   -2.1168612    1.0119803  1714209 
   55000    1.0007405   -2.1160798   -2.1160798   -1.1045578  0.063919283   -2.1160798     1.011522  1714209 
   56000    1.0013875   -2.1170301   -2.1170301   -1.1048541  0.063561454   -2.1170301     1.012176  1714209 
   57000    1.0014952   -2.1173644   -2.1173644   -1.1050796  0.066117139   -2.1173644    1.0122848  1714209 
   58000    1.0021408    -2.118136    -2.118136   -1.1051987  0.065087719    -2.118136    1.0129373  1714209 
   59000    1.0021166   -2.1179361   -2.1179361   -1.1050232  0.065580937   -2.1179361    1.0129129  1714209 
   60000    1.0006091   -2.1165904   -2.1165904   -1.1052013  0.062974826   -2.1165904    1.0113892  1714209 
   61000    1.0014064   -2.1174346   -2.1174346   -1.1052396  0.067548493   -2.1174346     1.012195  1714209 
   62000    1.0020373   -2.1181402   -2.1181402   -1.1053075  0.063840754   -2.1181402    1.0128327  1714209 
   63000    1.0025862   -2.1184334   -2.1184334   -1.1050459  0.068817561   -2.1184334    1.0133876  1714209 
   64000    1.0027663   -2.1186509   -2.1186509   -1.1050813  0.068129253   -2.1186509    1.0135696  1714209 
   65000    1.0025337   -2.1184772   -2.1184772   -1.1051427  0.065834469   -2.1184772    1.0133345  1714209 
   66000    1.0029513   -2.1192027   -2.1192027   -1.1054462   0.06628266   -2.1192027    1.0137565  1714209 
   67000    1.0024828   -2.1189951   -2.1189951   -1.1057121  0.068225272   -2.1189951     1.013283  1714209 
   68000    1.0019463   -2.1182481   -2.1182481   -1.1055073  0.068099574   -2.1182481    1.0127408  1714209 
   69000    1.0026295   -2.1190078   -2.1190078   -1.1055765  0.065546845   -2.1190078    1.0134313  1714209 
   70000    1.0019312    -2.118744    -2.118744   -1.1060185  0.066036764    -2.118744    1.0127255  1714209 
   71000    1.0009002   -2.1178912   -2.1178912   -1.1062078  0.068542646   -2.1178912    1.0116834  1714209 
   72000    1.0015855   -2.1179126   -2.1179126   -1.1055365  0.067931209   -2.1179126    1.0123761  1714209 
   73000    1.0018763   -2.1182535   -2.1182535   -1.1055835  0.066299336   -2.1182535      1.01267  1714209 
   74000    1.0021061   -2.1189816   -2.1189816   -1.1060793  0.068056893   -2.1189816    1.0129023  1714209 
   75000    1.0011022   -2.1179985   -2.1179985    -1.106111  0.065752074   -2.1179985    1.0118876  1714209 
   76000    1.0019994   -2.1186558   -2.1186558   -1.1058614  0.064960188   -2.1186558    1.0127944  1714209 
   77000    1.0010322    -2.118189    -2.118189   -1.1063722  0.065675599    -2.118189    1.0118168  1714209 
   78000    1.0013503   -2.1184185   -2.1184185   -1.1062801  0.064831424   -2.1184185    1.0121384  1714209 
   79000    1.0006499   -2.1174761   -2.1174761   -1.1060457  0.065066311   -2.1174761    1.0114304  1714209 
   80000    1.0014167   -2.1178899   -2.1178899   -1.1056845  0.065635368   -2.1178899    1.0122054  1714209 
   81000    1.0013744   -2.1178328   -2.1178328   -1.1056701  0.063806746   -2.1178328    1.0121627  1714209 
   82000    1.0009822   -2.1176113   -2.1176113    -1.105845  0.067660826   -2.1176113    1.0117662  1714209 
   83000    1.0010472   -2.1177467   -2.1177467   -1.1059147  0.066115322   -2.1177467     1.011832  1714209 
   84000    1.0017866   -2.1185207   -2.1185207   -1.1059414  0.066730211   -2.1185207    1.0125793  1714209 
   85000    1.0012328   -2.1180679   -2.1180679   -1.1060483  0.067150857   -2.1180679    1.0120196  1714209 
   86000    1.0016006   -2.1182572   -2.1182572   -1.1058659  0.066705295   -2.1182572    1.0123913  1714209 
   87000    1.0022983   -2.1183974   -2.1183974   -1.1053008  0.063603547   -2.1183974    1.0130965  1714209 
   88000    1.0020651   -2.1182463   -2.1182463   -1.1053855  0.062012908   -2.1182463    1.0128608  1714209 
   89000    1.0017473   -2.1177334   -2.1177334   -1.1051938  0.064516044   -2.1177334    1.0125396  1714209 
   90000    1.0001998   -2.1161037   -2.1161037   -1.1051283  0.066366576   -2.1161037    1.0109754  1714209 
   91000    1.0007188   -2.1167361   -2.1167361   -1.1052361  0.061641945   -2.1167361       1.0115  1714209 
   92000    1.0010938   -2.1175941   -2.1175941    -1.105715  0.060214349   -2.1175941    1.0118791  1714209 
   93000    1.0002906   -2.1164957   -2.1164957   -1.1054285  0.067222378   -2.1164957    1.0110672  1714209 
   94000    1.0008833    -2.117054    -2.117054   -1.1053877  0.062929539    -2.117054    1.0116663  1714209 
   95000    1.0007335   -2.1169163   -2.1169163   -1.1054013  0.064883884   -2.1169163    1.0115149  1714209 
   96000    1.0011987   -2.1174328   -2.1174328   -1.1054478  0.064541498   -2.1174328    1.0119851  1714209 
   97000   0.99989077   -2.1163404   -2.1163404   -1.1056773  0.062909869   -2.1163404    1.0106631  1714209 
   98000   0.99952482   -2.1159635   -2.1159635   -1.1056703  0.061858777   -2.1159635    1.0102932  1714209 
   99000   0.99983549   -2.1157146   -2.1157146   -1.1051075  0.062578784   -2.1157146    1.0106072  1714209 
  100000     1.000459   -2.1160649   -2.1160649   -1.1048274  0.060907588   -2.1160649    1.0112375  1714209 
  101000    1.0000481   -2.1153978   -2.1153978   -1.1045758  0.061138019   -2.1153978    1.0108221  1714209 
  102000    1.0006798   -2.1158108   -2.1158108   -1.1043502  0.063664408   -2.1158108    1.0114606  1714209 
  103000    1.0002868   -2.1151887   -2.1151887   -1.1041253  0.060987466   -2.1151887    1.0110634  1714209 
  104000   0.99957101   -2.1143672   -2.1143672   -1.1040273  0.062211076   -2.1143672    1.0103399  1714209 
  105000    1.0001698   -2.1149693   -2.1149693   -1.1040242  0.062528839   -2.1149693    1.0109451  1714209 
  106000    1.0011885   -2.1159236   -2.1159236   -1.1039488  0.063190173   -2.1159236    1.0119748  1714209 
  107000    1.0005858   -2.1150072   -2.1150072   -1.1036416  0.059288393   -2.1150072    1.0113656  1714209 
  108000    1.0007578    -2.115162    -2.115162   -1.1036226  0.062168108    -2.115162    1.0115394  1714209 
  109000    1.0006822   -2.1152266   -2.1152266   -1.1037635  0.062480442   -2.1152266    1.0114631  1714209 
  110000    1.0006421   -2.1149959   -2.1149959   -1.1035734  0.059734491   -2.1149959    1.0114225  1714209 
  111000    1.0007776   -2.1149929   -2.1149929   -1.1034334  0.059725176   -2.1149929    1.0115595  1714209 
  112000    1.0003086   -2.1145159   -2.1145159   -1.1034305  0.065105624   -2.1145159    1.0110854  1714209 
  113000    0.9999942   -2.1138997   -2.1138997   -1.1031321  0.063443449   -2.1138997    1.0107676  1714209 
  114000   0.99885401   -2.1133926   -2.1133926   -1.1037775  0.062993894   -2.1133926    1.0096151  1714209 
  115000   0.99939554   -2.1139082   -2.1139082   -1.1037457  0.063133142   -2.1139082    1.0101625  1714209 
  116000    1.0004741    -2.114823    -2.114823   -1.1035703  0.059634567    -2.114823    1.0112527  1714209 
  117000   0.99961971   -2.1138041   -2.1138041    -1.103415  0.062960086   -2.1138041    1.0103891  1714209 
  118000    1.0003436   -2.1146408   -2.1146408     -1.10352  0.062691187   -2.1146408    1.0111208  1714209 
  119000     1.001144   -2.1152339   -2.1152339    -1.103304  0.062150136   -2.1152339    1.0119298  1714209 
  120000    1.0006931   -2.1153516   -2.1153516   -1.1038776  0.059956963   -2.1153516    1.0114741  1714209 
  121000   0.99936968   -2.1138149   -2.1138149   -1.1036785  0.060574418   -2.1138149    1.0101364  1714209 
  122000    1.0006396   -2.1148671   -2.1148671   -1.1034471  0.061492192   -2.1148671      1.01142  1714209 
  123000    1.0002659   -2.1146352   -2.1146352    -1.103593  0.063053452   -2.1146352    1.0110422  1714209 
  124000   0.99941109   -2.1137482   -2.1137482   -1.1035699  0.063325512   -2.1137482    1.0101782  1714209 
  125000    1.0011474   -2.1157791   -2.1157791   -1.1038458  0.060968978   -2.1157791    1.0119333  1714209 
  126000    1.0005442   -2.1149052   -2.1149052   -1.1035817  0.059740528   -2.1149052    1.0113235  1714209 
  127000   0.99998468   -2.1150949   -2.1150949   -1.1043369  0.062335782   -2.1150949     1.010758  1714209 
  128000    1.0000331   -2.1149548   -2.1149548   -1.1041478  0.064197692   -2.1149548     1.010807  1714209 
  129000    1.0009401   -2.1157574   -2.1157574   -1.1040336  0.058645618   -2.1157574    1.0117237  1714209 
  130000    1.0000871   -2.1149675   -2.1149675   -1.1041061  0.060569909   -2.1149675    1.0108615  1714209 
  131000    1.0011311   -2.1159789   -2.1159789   -1.1040622  0.064921918   -2.1159789    1.0119167  1714209 
  132000     1.001767   -2.1170687   -2.1170687   -1.1045092  0.062115093   -2.1170687    1.0125595  1714209 
  133000   0.99985223   -2.1153064   -2.1153064   -1.1046823  0.062131021   -2.1153064    1.0106241  1714209 
  134000    1.0004133   -2.1158433   -2.1158433    -1.104652  0.066966028   -2.1158433    1.0111913  1714209 
  135000    1.0004746   -2.1160154   -2.1160154   -1.1047622  0.063083149   -2.1160154    1.0112532  1714209 
  136000    1.0001249   -2.1156158   -2.1156158    -1.104716  0.063766653   -2.1156158    1.0108997  1714209 
  137000    1.0015453   -2.1168831   -2.1168831   -1.1045476  0.064921321   -2.1168831    1.0123355  1714209 
  138000    1.0002136   -2.1154936   -2.1154936   -1.1045043   0.06421549   -2.1154936    1.0109893  1714209 
  139000    1.0012404   -2.1164654   -2.1164654   -1.1044382  0.061510734   -2.1164654    1.0120272  1714209 
  140000    1.0012318   -2.1162638   -2.1162638   -1.1042453  0.069157869   -2.1162638    1.0120185  1714209 
  141000    1.0013617   -2.1168184   -2.1168184   -1.1046685  0.065557212   -2.1168184    1.0121499  1714209 
  142000    1.0009581   -2.1167756   -2.1167756   -1.1050337  0.065745861   -2.1167756    1.0117419  1714209 
  143000    1.0013902   -2.1167255   -2.1167255   -1.1045469  0.067326942   -2.1167255    1.0121786  1714209 
  144000    1.0025545   -2.1180579   -2.1180579   -1.1047024  0.062783895   -2.1180579    1.0133555  1714209 
  145000    1.0004253   -2.1161332   -2.1161332   -1.1049298  0.063731541   -2.1161332    1.0112034  1714209 
  146000    1.0015314   -2.1172384   -2.1172384   -1.1049171  0.064196078   -2.1172384    1.0123214  1714209 
  147000    1.0010904   -2.1171057   -2.1171057   -1.1052301  0.061434525   -2.1171057    1.0118756  1714209 
  148000    1.0012085     -2.11682     -2.11682    -1.104825  0.065643093     -2.11682     1.011995  1714209 
  149000    1.0009739   -2.1169723   -2.1169723   -1.1052145   0.06418009   -2.1169723    1.0117579  1714209 
  150000    1.0001596   -2.1159242   -2.1159242   -1.1049894  0.065391456   -2.1159242    1.0109348  1714209 
  151000    1.0011562   -2.1166989   -2.1166989   -1.1047567  0.065446673   -2.1166989    1.0119422  1714209 
  152000    1.0021845   -2.1181728   -2.1181728   -1.1051913  0.065426326   -2.1181728    1.0129815  1714209 
  153000    1.0012019    -2.117776    -2.117776   -1.1057877  0.064431189    -2.117776    1.0119883  1714209 
  154000    1.0003462   -2.1167907   -2.1167907   -1.1056673  0.061358151   -2.1167907    1.0111234  1714209 
  155000    1.0008299   -2.1173741   -2.1173741   -1.1057618  0.060530614   -2.1173741    1.0116123  1714209 
  156000     1.001387   -2.1172985   -2.1172985   -1.1051231  0.063495556   -2.1172985    1.0121755  1714209 
  157000    1.0017155   -2.1178236   -2.1178236   -1.1053162   0.06861236   -2.1178236    1.0125074  1714209 
  158000    1.0017384   -2.1178438   -2.1178438   -1.1053132  0.069072079   -2.1178438    1.0125306  1714209 
  159000    1.0010781   -2.1173102   -2.1173102   -1.1054471  0.065129256   -2.1173102    1.0118631  1714209 
  160000    1.0011976   -2.1168548   -2.1168548   -1.1048708  0.064274704   -2.1168548     1.011984  1714209 
  161000    1.0022023   -2.1177813   -2.1177813   -1.1047817   0.06898118   -2.1177813    1.0129995  1714209 
  162000    1.0026396   -2.1184873   -2.1184873   -1.1050458   0.06933856   -2.1184873    1.0134415  1714209 
  163000    1.0017852   -2.1175263   -2.1175263   -1.1049485  0.065486559   -2.1175263    1.0125779  1714209 
  164000    1.0015442   -2.1172854   -2.1172854   -1.1049512  0.067140558   -2.1172854    1.0123343  1714209 
  165000    1.0012297   -2.1172089   -2.1172089   -1.1051925  0.066575007   -2.1172089    1.0120165  1714209 
  166000    1.0027733   -2.1185014   -2.1185014   -1.1049248  0.064183885   -2.1185014    1.0135766  1714209 
  167000    1.0003583   -2.1159151   -2.1159151   -1.1047795  0.066641722   -2.1159151    1.0111357  1714209 
  168000    1.0011482   -2.1170406   -2.1170406   -1.1051065  0.065244064   -2.1170406     1.011934  1714209 
  169000   0.99986461    -2.115846    -2.115846   -1.1052094  0.062860094    -2.115846    1.0106366  1714209 
  170000    1.0010829   -2.1169972   -2.1169972   -1.1051291  0.061265158   -2.1169972    1.0118681  1714209 
  171000    1.0008573    -2.116877    -2.116877   -1.1052371  0.062659022    -2.116877      1.01164  1714209 
  172000    1.0012421   -2.1173322   -2.1173322   -1.1053033  0.067056815   -2.1173322    1.0120289  1714209 
  173000    1.0012888   -2.1171563   -2.1171563   -1.1050801  0.067672148   -2.1171563    1.0120762  1714209 
  174000    1.0011263   -2.1170519   -2.1170519   -1.1051399  0.065152172   -2.1170519    1.0119119  1714209 
  175000      1.00029   -2.1163692   -2.1163692   -1.1053026  0.062129578   -2.1163692    1.0110666  1714209 
  176000    1.0001562   -2.1161224   -2.1161224    -1.105191  0.063386785   -2.1161224    1.0109314  1714209 
  177000   0.99996933   -2.1158598   -2.1158598   -1.1051174  0.062117103   -2.1158598    1.0107425  1714209 
  178000    1.0002466   -2.1159854   -2.1159854   -1.1049627  0.066193567   -2.1159854    1.0110227  1714209 
  179000   0.99984671   -2.1160601   -2.1160601   -1.1054415  0.061776782   -2.1160601    1.0106185  1714209 
  180000    1.0004032   -2.1161674   -2.1161674   -1.1049863  0.062072744   -2.1161674    1.0111811  1714209 
  181000    1.0008429   -2.1165359   -2.1165359   -1.1049104  0.066370923   -2.1165359    1.0116255  1714209 
  182000    1.0002065   -2.1159377   -2.1159377   -1.1049555  0.065358184   -2.1159377    1.0109822  1714209 
  183000    1.0012462    -2.116875    -2.116875   -1.1048419  0.062539974    -2.116875    1.0120331  1714209 
  184000    1.0003054   -2.1160516   -2.1160516   -1.1049694  0.063104401   -2.1160516    1.0110822  1714209 
  185000    1.0001203   -2.1158709   -2.1158709   -1.1049758  0.064385146   -2.1158709    1.0108951  1714209 
  186000    1.0011036   -2.1168576   -2.1168576   -1.1049685  0.058348271   -2.1168576     1.011889  1714209 
  187000    1.0007997   -2.1161117   -2.1161117   -1.1045299  0.065908364   -2.1161117    1.0115818  1714209 
  188000    1.0009612   -2.1165264   -2.1165264   -1.1047814  0.066523336   -2.1165264     1.011745  1714209 
  189000    1.0007745   -2.1158253   -2.1158253    -1.104269  0.065260884   -2.1158253    1.0115564  1714209 
  190000    1.0013481   -2.1166201   -2.1166201    -1.104484  0.063877396   -2.1166201    1.0121361  1714209 
  191000    1.0009903   -2.1164079   -2.1164079   -1.1046334  0.068331026   -2.1164079    1.0117744  1714209 
  192000      1.00046   -2.1156819   -2.1156819   -1.1044434  0.066902222   -2.1156819    1.0112385  1714209 
  193000    1.0008244   -2.1155468   -2.1155468     -1.10394   0.06656761   -2.1155468    1.0116068  1714209 
  194000    1.0016587   -2.1163134   -2.1163134   -1.1038633  0.063900659   -2.1163134    1.0124501  1714209 
  195000     1.001266   -2.1160478   -2.1160478   -1.1039947  0.064820075   -2.1160478    1.0120531  1714209 
  196000    1.0016931   -2.1165803   -2.1165803   -1.1040955  0.067933606   -2.1165803    1.0124848  1714209 
  197000    1.0015274    -2.116707    -2.116707   -1.1043896  0.065491881    -2.116707    1.0123174  1714209 
  198000    1.0013739   -2.1165812   -2.1165812    -1.104419  0.065528318   -2.1165812    1.0121622  1714209 
  199000    1.0010321   -2.1164685   -2.1164685   -1.1046518  0.063370566   -2.1164685    1.0118167  1714209 
  200000    1.0000005   -2.1159653   -2.1159653   -1.1051914  0.067450073   -2.1159653    1.0107739  1714209 
  201000    1.0000082   -2.1160997   -2.1160997    -1.105318  0.066380124   -2.1160997    1.0107817  1714209 
  202000    1.0009179   -2.1169762   -2.1169762    -1.105275  0.062562393   -2.1169762    1.0117012  1714209 
  203000    1.0000419   -2.1164619   -2.1164619   -1.1056461  0.062257541   -2.1164619    1.0108159  1714209 
  204000    1.0004268    -2.116846    -2.116846   -1.1056411  0.067059645    -2.116846    1.0112049  1714209 
  205000    1.0006095   -2.1165564   -2.1165564   -1.1051669  0.062890554   -2.1165564    1.0113895  1714209 
  206000    1.0005841   -2.1167848   -2.1167848   -1.1054209  0.061138859   -2.1167848    1.0113638  1714209 
  207000   0.99934061   -2.1154532   -2.1154532   -1.1053462  0.061060606   -2.1154532     1.010107  1714209 
  208000   0.99997353   -2.1164114   -2.1164114   -1.1056647  0.063483021   -2.1164114    1.0107467  1714209 
  209000   0.99974985   -2.1163266   -2.1163266    -1.105806  0.062594317   -2.1163266    1.0105206  1714209 
  210000    1.0000741   -2.1167493   -2.1167493   -1.1059009   0.06446004   -2.1167493    1.0108484  1714209 
  211000    1.0007911   -2.1170455   -2.1170455   -1.1054724  0.062690826   -2.1170455    1.0115731  1714209 
  212000    1.0007955   -2.1172994   -2.1172994   -1.1057219  0.062591679   -2.1172994    1.0115776  1714209 
  213000     1.001127   -2.1172999   -2.1172999   -1.1053873  0.066176589   -2.1172999    1.0119126  1714209 
  214000    1.0008967   -2.1173316   -2.1173316   -1.1056518  0.060508018   -2.1173316    1.0116798  1714209 
  215000    1.0007502    -2.116941    -2.116941   -1.1054092  0.062179395    -2.116941    1.0115318  1714209 
  216000    1.0013395   -2.1172863   -2.1172863   -1.1051588  0.062723024   -2.1172863    1.0121274  1714209 
  217000    1.0009902   -2.1171364   -2.1171364   -1.1053621  0.064773125   -2.1171364    1.0117743  1714209 
  218000     1.001076   -2.1168771   -2.1168771    -1.105016  0.068223207   -2.1168771    1.0118611  1714209 
  219000    1.0007976   -2.1162128   -2.1162128   -1.1046331  0.062057469   -2.1162128    1.0115797  1714209 
  220000    1.0011132   -2.1170189   -2.1170189   -1.1051202  0.067110569   -2.1170189    1.0118986  1714209 
  221000    1.0007447   -2.1167831   -2.1167831   -1.1052569  0.067206531   -2.1167831    1.0115262  1714209 
  222000    1.0013869   -2.1172435   -2.1172435   -1.1050682  0.062888498   -2.1172435    1.0121753  1714209 
  223000    1.0020144   -2.1177877   -2.1177877   -1.1049782  0.069083955   -2.1177877    1.0128096  1714209 
  224000    1.0021624   -2.1179346   -2.1179346   -1.1049754  0.068586619   -2.1179346    1.0129592  1714209 
  225000    1.0022931   -2.1175538   -2.1175538   -1.1044625  0.069397919   -2.1175538    1.0130913  1714209 
  226000    1.0024406   -2.1177426   -2.1177426   -1.1045022  0.065396421   -2.1177426    1.0132404  1714209 
  227000    1.0019915   -2.1172861   -2.1172861   -1.1044996  0.063291259   -2.1172861    1.0127865  1714209 
  228000    1.0017315   -2.1172114   -2.1172114   -1.1046878  0.067290036   -2.1172114    1.0125236  1714209 
  229000    1.0012799   -2.1168872   -2.1168872     -1.10482  0.065595493   -2.1168872    1.0120672  1714209 
  230000    1.0011016   -2.1167562   -2.1167562   -1.1048693   0.06333458   -2.1167562    1.0118869  1714209 
  231000    1.0008546   -2.1166213   -2.1166213    -1.104984  0.065371221   -2.1166213    1.0116373  1714209 
  232000    1.0008828   -2.1166497   -2.1166497    -1.104984  0.063867962   -2.1166497    1.0116658  1714209 
  233000    1.0011643   -2.1165225   -2.1165225   -1.1045722   0.06553156   -2.1165225    1.0119503  1714209 
  234000    1.0025243   -2.1177748   -2.1177748   -1.1044497  0.070543565   -2.1177748     1.013325  1714209 
  235000    1.0014862   -2.1170178   -2.1170178   -1.1047421  0.069714646   -2.1170178    1.0122757  1714209 
  236000    1.0030286   -2.1184822   -2.1184822   -1.1046476  0.064742216   -2.1184822    1.0138347  1714209 
  237000     1.001398   -2.1171978   -2.1171978   -1.1050112  0.062880283   -2.1171978    1.0121866  1714209 
  238000    1.0009408   -2.1166811   -2.1166811   -1.1049567  0.063715892   -2.1166811    1.0117244  1714209 
  239000     1.001729   -2.1175174   -2.1175174   -1.1049963  0.063794517   -2.1175174    1.0125211  1714209 
  240000    1.0016539   -2.1173489   -2.1173489   -1.1049038  0.063864878   -2.1173489    1.0124452  1714209 
  241000    1.0015717   -2.1171862   -2.1171862   -1.1048241   0.06725333   -2.1171862    1.0123622  1714209 
  242000    1.0017274   -2.1173027   -2.1173027   -1.1047832  0.068477285   -2.1173027    1.0125195  1714209 
  243000    1.0015854   -2.1169943   -2.1169943   -1.1046183  0.063633087   -2.1169943     1.012376  1714209 
  244000    1.0016623   -2.1171874   -2.1171874   -1.1047336  0.061383226   -2.1171874    1.0124537  1714209 
  245000    1.0013361   -2.1171192   -2.1171192   -1.1049952  0.063256237   -2.1171192     1.012124  1714209 
  246000    1.0014467   -2.1176724   -2.1176724   -1.1054367  0.065741611   -2.1176724    1.0122357  1714209 
  247000    1.0014303   -2.1172374   -2.1172374   -1.1050183  0.064835148   -2.1172374    1.0122191  1714209 
  248000    1.0006477   -2.1161689   -2.1161689   -1.1047407  0.063643497   -2.1161689    1.0114281  1714209 
  249000    1.0006294   -2.1161305   -2.1161305   -1.1047209  0.063138794   -2.1161305    1.0114096  1714209 
  250000    1.0016074   -2.1173057   -2.1173057   -1.1049075  0.061833844   -2.1173057    1.0123982  1714209 
  251000    1.0005901   -2.1161731   -2.1161731   -1.1048032  0.065151311   -2.1161731      1.01137  1714209 
  252000     1.001599    -2.117019    -2.117019   -1.1046293   0.06566273    -2.117019    1.0123897  1714209 
  253000    1.0022859   -2.1178882   -2.1178882   -1.1048042  0.064721087   -2.1178882     1.013084  1714209 
  254000    1.0019989   -2.1172975   -2.1172975   -1.1045035  0.062142729   -2.1172975    1.0127939  1714209 
  255000    1.0011514   -2.1163346   -2.1163346   -1.1043973  0.066234293   -2.1163346    1.0119373  1714209 
  256000    1.0013465   -2.1168625   -2.1168625    -1.104728  0.065106533   -2.1168625    1.0121345  1714209 
  257000    1.0010838   -2.1166486   -2.1166486   -1.1047796  0.064416162   -2.1166486     1.011869  1714209 
  258000    1.0010609   -2.1164843   -2.1164843   -1.1046385  0.062445299   -2.1164843    1.0118458  1714209 
  259000    1.0018278   -2.1170274   -2.1170274   -1.1044065    0.0643554   -2.1170274    1.0126209  1714209 
  260000    1.0014346   -2.1167963   -2.1167963   -1.1045729  0.066171205   -2.1167963    1.0122235  1714209 
  261000    1.0006227   -2.1155692   -2.1155692   -1.1041663  0.066683077   -2.1155692    1.0114029  1714209 
  262000    1.0014209   -2.1167937   -2.1167937    -1.104584  0.064370522   -2.1167937    1.0122097  1714209 
  263000    1.0008154   -2.1157477   -2.1157477     -1.10415  0.062105197   -2.1157477    1.0115977  1714209 
  264000    1.0013866    -2.116364    -2.116364   -1.1041889  0.065201042    -2.116364    1.0121751  1714209 
  265000    1.0009934   -2.1156846   -2.1156846   -1.1039071  0.063985014   -2.1156846    1.0117775  1714209 
  266000    1.0002355   -2.1149153   -2.1149153   -1.1039039  0.064338664   -2.1149153    1.0110115  1714209 
  267000    1.0011322   -2.1160077   -2.1160077   -1.1040898  0.064445713   -2.1160077    1.0119179  1714209 
  268000    1.0010255   -2.1159679   -2.1159679   -1.1041578  0.063928573   -2.1159679    1.0118101  1714209 
  269000    1.0008007   -2.1159583   -2.1159583   -1.1043755  0.063588824   -2.1159583    1.0115828  1714209 
  270000    1.0016316   -2.1169347   -2.1169347   -1.1045121  0.063616738   -2.1169347    1.0124226  1714209 
  271000    1.0007913   -2.1163541   -2.1163541   -1.1047808  0.061302577   -2.1163541    1.0115733  1714209 
  272000    1.0010638   -2.1165868   -2.1165868    -1.104738  0.061012982   -2.1165868    1.0118488  1714209 
  273000    1.0010017   -2.1158636   -2.1158636   -1.1040776  0.063459814   -2.1158636     1.011786  1714209 
  274000    1.0009615   -2.1161282   -2.1161282   -1.1043828  0.067061079   -2.1161282    1.0117454  1714209 
  275000     1.000831    -2.115837    -2.115837   -1.1042236   0.06214149    -2.115837    1.0116135  1714209 
  276000    1.0009121   -2.1157981   -2.1157981   -1.1041026  0.065637155   -2.1157981    1.0116954  1714209 
  277000    1.0003392   -2.1151034   -2.1151034   -1.1039871  0.061817874   -2.1151034    1.0111163  1714209 
  278000    1.0008953   -2.1155114   -2.1155114    -1.103833   0.06346978   -2.1155114    1.0116784  1714209 
  279000    1.0010226    -2.115555    -2.115555   -1.1037479  0.063637231    -2.115555    1.0118071  1714209 
  280000    1.0014004   -2.1158626   -2.1158626   -1.1036736  0.064255813   -2.1158626     1.012189  1714209 
  281000    1.0020946   -2.1164677   -2.1164677   -1.1035771  0.060482071   -2.1164677    1.0128906  1714209 
  282000    1.0019663   -2.1162799   -2.1162799   -1.1035189  0.060495892   -2.1162799     1.012761  1714209 
  283000    1.0005885   -2.1148901   -2.1148901   -1.1035218  0.066559465   -2.1148901    1.0113683  1714209 
  284000    1.0017892   -2.1157473   -2.1157473   -1.1031654   0.06580714   -2.1157473    1.0125819  1714209 
  285000    1.0002881   -2.1142456   -2.1142456   -1.1031809  0.065100847   -2.1142456    1.0110647  1714209 
  286000    1.0014736   -2.1158074   -2.1158074   -1.1035444  0.065290968   -2.1158074     1.012263  1714209 
  287000    1.0002794     -2.11453     -2.11453   -1.1034741  0.067616537     -2.11453    1.0110559  1714209 
  288000    1.0007547   -2.1151691   -2.1151691   -1.1036327  0.066046654   -2.1151691    1.0115363  1714209 
  289000    1.0004867    -2.115254    -2.115254   -1.1039885  0.061844868    -2.115254    1.0112655  1714209 
  290000   0.99993956   -2.1144929   -2.1144929   -1.1037805  0.065346142   -2.1144929    1.0107124  1714209 
  291000   0.99997804   -2.1143575   -2.1143575   -1.1036062  0.061749905   -2.1143575    1.0107513  1714209 
  292000    1.0006109   -2.1151589   -2.1151589   -1.1037679  0.065125834   -2.1151589     1.011391  1714209 
  293000    1.0014219   -2.1160692   -2.1160692   -1.1038585  0.061741251   -2.1160692    1.0122107  1714209 
  294000    1.0008209   -2.1158802   -2.1158802    -1.104277  0.061426701   -2.1158802    1.0116032  1714209 
  295000     1.001177   -2.1159869   -2.1159869   -1.1040238  0.064161798   -2.1159869    1.0119631  1714209 
  296000    1.0014621   -2.1162977   -2.1162977   -1.1040464  0.063685922   -2.1162977    1.0122513  1714209 
  297000   0.99962929   -2.1146137   -2.1146137   -1.1042149  0.065474138   -2.1146137    1.0103988  1714209 
  298000    1.0010976   -2.1158133   -2.1158133   -1.1039304  0.067922668   -2.1158133    1.0118829  1714209 
  299000    1.0009655   -2.1155836   -2.1155836   -1.1038342  0.067009865   -2.1155836    1.0117494  1714209 
  300000    1.0011589    -2.115777    -2.115777   -1.1038321  0.063094295    -2.115777    1.0119449  1714209 
  301000    1.0016088   -2.1164111   -2.1164111   -1.1040115  0.066722552   -2.1164111    1.0123996  1714209 
  302000    1.0013884   -2.1162977   -2.1162977   -1.1041208  0.065694626   -2.1162977    1.0121769  1714209 
  303000    1.0021235   -2.1164747   -2.1164747   -1.1035549  0.065360495   -2.1164747    1.0129199  1714209 
  304000    1.0023809   -2.1164063   -2.1164063   -1.1032263  0.064034992   -2.1164063    1.0131801  1714209 
  305000    1.0017517   -2.1156816   -2.1156816   -1.1031376  0.070068949   -2.1156816     1.012544  1714209 
  306000     1.002668   -2.1165919   -2.1165919   -1.1031217  0.065581624   -2.1165919    1.0134702  1714209 
  307000    1.0027506   -2.1168297   -2.1168297    -1.103276  0.068708684   -2.1168297    1.0135537  1714209 
  308000    1.0028863    -2.117437    -2.117437   -1.1037462   0.06342954    -2.117437    1.0136908  1714209 
  309000    1.0015903   -2.1162297   -2.1162297   -1.1038487  0.065880515   -2.1162297     1.012381  1714209 
  310000    1.0018352   -2.1166201   -2.1166201   -1.1039916  0.064034588   -2.1166201    1.0126285  1714209 
  311000    1.0011019   -2.1157077   -2.1157077   -1.1038205  0.065472319   -2.1157077    1.0118872  1714209 
  312000    1.0019511   -2.1167717   -2.1167717   -1.1040261   0.06562373   -2.1167717    1.0127456  1714209 
  313000    1.0010275   -2.1162473   -2.1162473   -1.1044353  0.065245901   -2.1162473    1.0118121  1714209 
  314000      1.00139   -2.1164331   -2.1164331   -1.1042546  0.062499256   -2.1164331    1.0121785  1714209 
  315000    1.0006612   -2.1158454   -2.1158454   -1.1044035  0.063640858   -2.1158454    1.0114418  1714209 
  316000    1.0010876   -2.1162875   -2.1162875   -1.1044147  0.067946827   -2.1162875    1.0118728  1714209 
  317000    1.0001192   -2.1153568   -2.1153568   -1.1044629  0.064614108   -2.1153568    1.0108939  1714209 
  318000    1.0008879   -2.1162703   -2.1162703   -1.1045994  0.066841443   -2.1162703    1.0116709  1714209 
  319000    1.0004002   -2.1157974   -2.1157974   -1.1046193  0.065606797   -2.1157974     1.011178  1714209 
  320000    1.0004978   -2.1158977   -2.1158977   -1.1046211  0.065233205   -2.1158977    1.0112767  1714209 
  321000    1.0002593   -2.1156559   -2.1156559   -1.1046203   0.06338042   -2.1156559    1.0110356  1714209 
  322000     1.001338   -2.1168313   -2.1168313   -1.1047055  0.066960386   -2.1168313    1.0121259  1714209 
  323000    1.0011175   -2.1162453   -2.1162453   -1.1043423  0.066099539   -2.1162453     1.011903  1714209 
  324000     1.000775   -2.1161942   -2.1161942   -1.1046373   0.06499516   -2.1161942    1.0115569  1714209 
  325000    1.0012015   -2.1168843   -2.1168843   -1.1048964   0.06713157   -2.1168843    1.0119879  1714209 
  326000    1.0023105   -2.1174458   -2.1174458   -1.1043369  0.065960823   -2.1174458    1.0131089  1714209 
  327000    1.0014324   -2.1162086   -2.1162086   -1.1039873  0.066493889   -2.1162086    1.0122213  1714209 
  328000    1.0020523   -2.1165981   -2.1165981   -1.1037502  0.066007154   -2.1165981    1.0128479  1714209 
  329000     1.002462   -2.1171767   -2.1171767   -1.1039147  0.065908665   -2.1171767     1.013262  1714209 
  330000    1.0019252   -2.1169455   -2.1169455   -1.1042261  0.064614987   -2.1169455    1.0127195  1714209 
  331000    1.0018641   -2.1167014   -2.1167014   -1.1040438  0.066700224   -2.1167014    1.0126576  1714209 
  332000    1.0012697    -2.116145    -2.116145   -1.1040881  0.066992754    -2.116145    1.0120569  1714209 
  333000    1.0025631   -2.1175221   -2.1175221   -1.1041579  0.066802565   -2.1175221    1.0133642  1714209 
  334000    1.0021468   -2.1169295   -2.1169295   -1.1039861  0.067180478   -2.1169295    1.0129434  1714209 
  335000    1.0014455   -2.1162019   -2.1162019   -1.1039674  0.063590071   -2.1162019    1.0122346  1714209 
  336000    1.0022566   -2.1166537   -2.1166537   -1.1035994  0.063639221   -2.1166537    1.0130544  1714209 
  337000    1.0015905   -2.1161862   -2.1161862   -1.1038051  0.061830909   -2.1161862    1.0123811  1714209 
  338000    1.0016746   -2.1162457   -2.1162457   -1.1037796  0.061535644   -2.1162457    1.0124661  1714209 
  339000    1.0018794   -2.1163971   -2.1163971    -1.103724   0.06340189   -2.1163971    1.0126731  1714209 
  340000    1.0023551   -2.1169112   -2.1169112   -1.1037573  0.063359441   -2.1169112    1.0131539  1714209 
  341000    1.0015202   -2.1163536   -2.1163536   -1.1040436  0.061999068   -2.1163536    1.0123101  1714209 
  342000    1.0016087   -2.1167604   -2.1167604   -1.1043609  0.064931411   -2.1167604    1.0123995  1714209 
  343000    1.0014733   -2.1165601   -2.1165601   -1.1042974  0.064453172   -2.1165601    1.0122627  1714209 
  344000    1.0017302   -2.1166139   -2.1166139   -1.1040916  0.066337027   -2.1166139    1.0125223  1714209 
  345000    1.0013109   -2.1159974   -2.1159974   -1.1038988  0.065505811   -2.1159974    1.0120985  1714209 
  346000    1.0002041   -2.1149971   -2.1149971   -1.1040174  0.061502533   -2.1149971    1.0109798  1714209 
  347000    1.0005801   -2.1155944   -2.1155944   -1.1042346  0.063773272   -2.1155944    1.0113598  1714209 
  348000    1.0005714   -2.1150389   -2.1150389   -1.1036879  0.067566649   -2.1150389     1.011351  1714209 
  349000    1.0014739   -2.1156539   -2.1156539   -1.1033906  0.068442292   -2.1156539    1.0122633  1714209 
  350000     1.001132    -2.115606    -2.115606   -1.1036882  0.066091145    -2.115606    1.0119177  1714209 
  351000    1.0014153     -2.11627     -2.11627    -1.104066  0.066279577     -2.11627    1.0122041  1714209 
  352000    1.0005462   -2.1152841   -2.1152841   -1.1039586  0.060408638   -2.1152841    1.0113256  1714209 
  353000    1.0007559   -2.1155371   -2.1155371   -1.1039996  0.062560933   -2.1155371    1.0115376  1714209 
  354000      1.00117   -2.1159581   -2.1159581    -1.104002  0.066644143   -2.1159581    1.0119561  1714209 
  355000   0.99955301   -2.1141133   -2.1141133   -1.1037916  0.065216462   -2.1141133    1.0103217  1714209 
  356000    1.0009113   -2.1156993   -2.1156993   -1.1040046  0.064966666   -2.1156993    1.0116946  1714209 
  357000    1.0013428   -2.1163373   -2.1163373   -1.1042065  0.061089278   -2.1163373    1.0121307  1714209 
  358000    1.0003529   -2.1152407   -2.1152407   -1.1041105  0.063081551   -2.1152407    1.0111302  1714209 
  359000    1.0008147   -2.1151575   -2.1151575   -1.1035606  0.060313982   -2.1151575     1.011597  1714209 
  360000    1.0006775   -2.1150101   -2.1150101   -1.1035519  0.061071836   -2.1150101    1.0114583  1714209 
  361000    1.0004866   -2.1144743   -2.1144743   -1.1032089  0.064163547   -2.1144743    1.0112654  1714209 
  362000    1.0008808   -2.1149348   -2.1149348    -1.103271  0.067679798   -2.1149348    1.0116638  1714209 
  363000    1.0011759   -2.1157328   -2.1157328   -1.1037707   0.06348335   -2.1157328    1.0119621  1714209 
  364000     1.001165   -2.1150954   -2.1150954   -1.1031444  0.067169399   -2.1150954     1.011951  1714209 
  365000    1.0025004   -2.1163763   -2.1163763   -1.1030754  0.065309035   -2.1163763    1.0133008  1714209 
  366000    1.0017955   -2.1156633   -2.1156633    -1.103075   0.06474878   -2.1156633    1.0125883  1714209 
  367000    1.0029685   -2.1168076   -2.1168076   -1.1030336  0.063168195   -2.1168076    1.0137739  1714209 
  368000    1.0020027   -2.1156896   -2.1156896   -1.1028918  0.065226356   -2.1156896    1.0127978  1714209 
  369000    1.0021329   -2.1160082   -2.1160082   -1.1030789  0.061717216   -2.1160082    1.0129293  1714209 
  370000    1.0016225   -2.1150528   -2.1150528   -1.1026393   0.06358072   -2.1150528    1.0124134  1714209 
  371000    1.0025872   -2.1161669   -2.1161669   -1.1027783  0.064927303   -2.1161669    1.0133886  1714209 
  372000    1.0031126   -2.1168395   -2.1168395     -1.10292  0.064313593   -2.1168395    1.0139196  1714209 
  373000    1.0023798   -2.1156118   -2.1156118   -1.1024329  0.069175108   -2.1156118    1.0131789  1714209 
  374000     1.002855   -2.1160555   -2.1160555   -1.1023963  0.063186789   -2.1160555    1.0136592  1714209 
  375000    1.0025283   -2.1164129   -2.1164129   -1.1030839  0.061900257   -2.1164129     1.013329  1714209 
  376000    1.0012431   -2.1150672   -2.1150672   -1.1030372  0.063350198   -2.1150672      1.01203  1714209 
  377000    1.0023855   -2.1158977   -2.1158977    -1.102713  0.063728325   -2.1158977    1.0131847  1714209 
  378000    1.0022597   -2.1161764   -2.1161764   -1.1031189   0.06614353   -2.1161764    1.0130575  1714209 
  379000    1.0016146   -2.1156574   -2.1156574   -1.1032519  0.061345274   -2.1156574    1.0124055  1714209 
  380000    1.0015707   -2.1153349   -2.1153349   -1.1029738   0.06424427   -2.1153349    1.0123611  1714209 
  381000    1.0016085   -2.1149498   -2.1149498   -1.1025505   0.06569139   -2.1149498    1.0123993  1714209 
  382000    1.0021918   -2.1152205   -2.1152205   -1.1022316    0.0667597   -2.1152205    1.0129889  1714209 
  383000    1.0019887   -2.1155814   -2.1155814   -1.1027978  0.067324375   -2.1155814    1.0127836  1714209 
  384000    1.0022681   -2.1157474   -2.1157474   -1.1026813  0.067315289   -2.1157474     1.013066  1714209 
  385000    1.0007122   -2.1144474   -2.1144474   -1.1029541  0.062879964   -2.1144474    1.0114933  1714209 
  386000    1.0014107   -2.1150574   -2.1150574    -1.102858   0.06356942   -2.1150574    1.0121993  1714209 
  387000    1.0011074   -2.1152374   -2.1152374   -1.1033446  0.066809013   -2.1152374    1.0118928  1714209 
  388000    1.0002679   -2.1141865   -2.1141865   -1.1031422  0.065283702   -2.1141865    1.0110443  1714209 
  389000    1.0008447   -2.1151152   -2.1151152   -1.1034879  0.059747784   -2.1151152    1.0116273  1714209 
  390000    1.0005023   -2.1141787   -2.1141787   -1.1028975   0.06344907   -2.1141787    1.0112812  1714209 
  391000    1.0004021   -2.1144137   -2.1144137   -1.1032338  0.066605022   -2.1144137    1.0111799  1714209 
  392000    1.0008889   -2.1144347   -2.1144347   -1.1027627  0.064156002   -2.1144347     1.011672  1714209 
  393000    1.0011082   -2.1150662   -2.1150662   -1.1031726  0.065107885   -2.1150662    1.0118936  1714209 
  394000    1.0007846   -2.1148153   -2.1148153   -1.1032488  0.063676015   -2.1148153    1.0115666  1714209 
  395000     1.000228   -2.1141615   -2.1141615   -1.1031575   0.06252089   -2.1141615     1.011004  1714209 
  396000    1.0003133   -2.1143208   -2.1143208   -1.1032306  0.067651896   -2.1143208    1.0110901  1714209 
  397000     1.000783   -2.1149252   -2.1149252   -1.1033603  0.063348411   -2.1149252    1.0115649  1714209 
  398000    1.0016559   -2.1159272   -2.1159272     -1.10348  0.068504064   -2.1159272    1.0124472  1714209 
  399000    1.0030213   -2.1175608   -2.1175608   -1.1037335  0.060996036   -2.1175608    1.0138273  1714209 
  400000    1.0025075     -2.11665     -2.11665    -1.103342  0.065821386     -2.11665     1.013308  1714209 
  401000     1.001655   -2.1156119   -2.1156119   -1.1031655  0.064065845   -2.1156119    1.0124463  1714209 
  402000      1.00136   -2.1151354   -2.1151354   -1.1029873  0.066266079   -2.1151354    1.0121481  1714209 
  403000    1.0015183   -2.1155628   -2.1155628   -1.1032546  0.068695465   -2.1155628    1.0123081  1714209 
  404000    1.0016907   -2.1157468   -2.1157468   -1.1032644   0.06820559   -2.1157468    1.0124824  1714209 
  405000     1.001143   -2.1148106   -2.1148106   -1.1028818  0.065231687   -2.1148106    1.0119288  1714209 
  406000    1.0017637   -2.1154207   -2.1154207   -1.1028645  0.064284407   -2.1154207    1.0125562  1714209 
  407000    1.0018172   -2.1149284   -2.1149284   -1.1023181  0.061396611   -2.1149284    1.0126103  1714209 
  408000    1.0020426   -2.1156958   -2.1156958   -1.1028577  0.066399361   -2.1156958    1.0128381  1714209 
  409000    1.0011303   -2.1149616   -2.1149616   -1.1030456  0.065897378   -2.1149616    1.0119159  1714209 
  410000    1.0018726     -2.11594     -2.11594   -1.1032738  0.064772519     -2.11594    1.0126662  1714209 
  411000    1.0017293   -2.1161651   -2.1161651   -1.1036437  0.063290466   -2.1161651    1.0125214  1714209 
  412000    1.0022264   -2.1165176   -2.1165176   -1.1034937  0.060457049   -2.1165176    1.0130239  1714209 
  413000    1.0018382   -2.1162845   -2.1162845    -1.103653  0.061979571   -2.1162845    1.0126315  1714209 
  414000    1.0007497   -2.1154915   -2.1154915   -1.1039603  0.065601943   -2.1154915    1.0115312  1714209 
  415000    1.0007447   -2.1157906   -2.1157906   -1.1042644  0.065341153   -2.1157906    1.0115262  1714209 
  416000    1.0005609   -2.1151198   -2.1151198   -1.1037794  0.066170636   -2.1151198    1.0113404  1714209 
  417000    1.0007971   -2.1152929   -2.1152929   -1.1037137     0.068953   -2.1152929    1.0115791  1714209 
  418000    1.0009172   -2.1159481   -2.1159481   -1.1042476  0.066182076   -2.1159481    1.0117005  1714209 
  419000    1.0026543   -2.1172897   -2.1172897   -1.1038334  0.064637418   -2.1172897    1.0134564  1714209 
  420000     1.000573   -2.1158571   -2.1158571   -1.1045044  0.062897424   -2.1158571    1.0113527  1714209 
  421000    1.0018397   -2.1169828   -2.1169828   -1.1043498  0.067197664   -2.1169828     1.012633  1714209 
  422000    1.0019771   -2.1169887   -2.1169887   -1.1042168  0.065889111   -2.1169887    1.0127719  1714209 
  423000    1.0012919   -2.1164202   -2.1164202   -1.1043409  0.066240833   -2.1164202    1.0120793  1714209 
  424000    1.0016481   -2.1168717   -2.1168717   -1.1044324  0.060470054   -2.1168717    1.0124393  1714209 
  425000    1.0019106   -2.1173329   -2.1173329   -1.1046282  0.064755392   -2.1173329    1.0127047  1714209 
  426000    1.0005631   -2.1155606   -2.1155606   -1.1042179  0.066053685   -2.1155606    1.0113426  1714209 
  427000    1.0019855   -2.1173015   -2.1173015   -1.1045211  0.069008561   -2.1173015    1.0127804  1714209 
  428000    1.0022073   -2.1173714   -2.1173714   -1.1043669  0.064633746   -2.1173714    1.0130045  1714209 
  429000    1.0024065   -2.1169817   -2.1169817   -1.1037759  0.067061599   -2.1169817    1.0132059  1714209 
  430000    1.0023777   -2.1170157   -2.1170157   -1.1038389   0.06229559   -2.1170157    1.0131768  1714209 
  431000    1.0025987   -2.1170172   -2.1170172    -1.103617  0.064705088   -2.1170172    1.0134002  1714209 
  432000    1.0025885   -2.1170239   -2.1170239   -1.1036341  0.061600785   -2.1170239    1.0133898  1714209 
  433000    1.0028237   -2.1173462   -2.1173462   -1.1037186  0.060877428   -2.1173462    1.0136276  1714209 
  434000    1.0018855   -2.1164599   -2.1164599   -1.1037806  0.064229226   -2.1164599    1.0126793  1714209 
  435000    1.0021634   -2.1169292   -2.1169292    -1.103969  0.063922121   -2.1169292    1.0129602  1714209 
  436000    1.0022373   -2.1170072   -2.1170072   -1.1039722   0.06342392   -2.1170072    1.0130349  1714209 
  437000    1.0018347    -2.116215    -2.116215   -1.1035871  0.066841015    -2.116215    1.0126279  1714209 
  438000    1.0011115   -2.1156574   -2.1156574   -1.1037604  0.065470327   -2.1156574    1.0118969  1714209 
  439000    1.0019553   -2.1166468   -2.1166468    -1.103897  0.064253323   -2.1166468    1.0127499  1714209 
  440000    0.9999915   -2.1151405   -2.1151405   -1.1043756  0.068602789   -2.1151405    1.0107649  1714209 
  441000    1.0006729   -2.1161654   -2.1161654   -1.1047118  0.064529558   -2.1161654    1.0114536  1714209 
  442000    1.0002984   -2.1159419   -2.1159419   -1.1048669  0.062364521   -2.1159419     1.011075  1714209 
  443000    1.0016719   -2.1169225   -2.1169225   -1.1044591  0.061597024   -2.1169225    1.0124633  1714209 
  444000     1.000981   -2.1160502   -2.1160502   -1.1042852  0.063872472   -2.1160502    1.0117651  1714209 
  445000    1.0008873   -2.1161544   -2.1161544   -1.1044841   0.06476621   -2.1161544    1.0116703  1714209 
  446000    1.0009027   -2.1162244   -2.1162244   -1.1045385  0.064360531   -2.1162244    1.0116859  1714209 
  447000   0.99985193   -2.1150284   -2.1150284   -1.1044046  0.067750039   -2.1150284    1.0106238  1714209 
  448000    1.0008728   -2.1162341   -2.1162341   -1.1045783  0.064163769   -2.1162341    1.0116557  1714209 
  449000    1.0011626   -2.1163914   -2.1163914   -1.1044428  0.064382784   -2.1163914    1.0119486  1714209 
  450000    1.0004385   -2.1156992   -2.1156992   -1.1044825  0.067013398   -2.1156992    1.0112167  1714209 
  451000    1.0012087   -2.1163505   -2.1163505   -1.1043552  0.061537112   -2.1163505    1.0119952  1714209 
  452000    1.0005636   -2.1152372   -2.1152372    -1.103894  0.066260794   -2.1152372    1.0113431  1714209 
  453000    1.0010851   -2.1155055   -2.1155055   -1.1036352  0.065452259   -2.1155055    1.0118703  1714209 
  454000    1.0005499    -2.115027    -2.115027   -1.1036977  0.063984979    -2.115027    1.0113293  1714209 
  455000    1.0011055   -2.1151481   -2.1151481   -1.1032572  0.064259543   -2.1151481    1.0118909  1714209 
  456000    1.0010853   -2.1153324   -2.1153324   -1.1034619  0.062022038   -2.1153324    1.0118705  1714209 
  457000    1.0006016   -2.1150301   -2.1150301   -1.1036486  0.063023369   -2.1150301    1.0113815  1714209 
  458000    1.0016259    -2.115663    -2.115663   -1.1032461  0.062427406    -2.115663    1.0124169  1714209 
  459000    1.0019105   -2.1159639   -2.1159639   -1.1032593  0.060055942   -2.1159639    1.0127046  1714209 
  460000    1.0010768   -2.1152422   -2.1152422   -1.1033803  0.065557493   -2.1152422    1.0118619  1714209 
  461000    1.0014991   -2.1153367   -2.1153367    -1.103048  0.066552635   -2.1153367    1.0122887  1714209 
  462000     1.001308   -2.1150401   -2.1150401   -1.1029445  0.062382611   -2.1150401    1.0120956  1714209 
  463000    1.0004937   -2.1142034   -2.1142034   -1.1029309  0.064949921   -2.1142034    1.0112725  1714209 
  464000    1.0006012   -2.1145725   -2.1145725   -1.1031914  0.059994433   -2.1145725    1.0113812  1714209 
  465000    1.0003565    -2.114378    -2.114378   -1.1032442  0.066107625    -2.114378    1.0111339  1714209 
  466000    1.0011488   -2.1150241   -2.1150241   -1.1030895  0.063126525   -2.1150241    1.0119347  1714209 
  467000    1.0003431   -2.1143639   -2.1143639   -1.1032437  0.066436238   -2.1143639    1.0111203  1714209 
  468000    1.0011245   -2.1154107   -2.1154107   -1.1035005  0.060853328   -2.1154107    1.0119101  1714209 
  469000    1.0013562   -2.1156345   -2.1156345   -1.1034902  0.065801456   -2.1156345    1.0121443  1714209 
  470000    1.0018076   -2.1162601   -2.1162601   -1.1036595  0.062989161   -2.1162601    1.0126005  1714209 
  471000    1.0002418   -2.1145767   -2.1145767   -1.1035588   0.06091105   -2.1145767    1.0110179  1714209 
  472000    1.0006685   -2.1149219   -2.1149219   -1.1034727  0.062949713   -2.1149219    1.0114492  1714209 
  473000    1.0007786   -2.1152743   -2.1152743   -1.1037138  0.068641811   -2.1152743    1.0115605  1714209 
  474000    1.0013304   -2.1154675   -2.1154675   -1.1033493   0.06309767   -2.1154675    1.0121182  1714209 
  475000     1.000609    -2.114803    -2.114803    -1.103414  0.064652079    -2.114803     1.011389  1714209 
  476000    1.0008238   -2.1146945   -2.1146945   -1.1030883  0.066382268   -2.1146945    1.0116062  1714209 
  477000    1.0000058   -2.1142116   -2.1142116   -1.1034322  0.064650021   -2.1142116    1.0107794  1714209 
  478000    1.0004098   -2.1143892   -2.1143892   -1.1032014  0.061536392   -2.1143892    1.0111877  1714209 
  479000    1.0011603   -2.1151521   -2.1151521   -1.1032058  0.064460303   -2.1151521    1.0119463  1714209 
  480000    1.0019903   -2.1155988   -2.1155988   -1.1028136  0.062164167   -2.1155988    1.0127852  1714209 
  481000    1.0008508   -2.1149572   -2.1149572   -1.1033237  0.062834698   -2.1149572    1.0116335  1714209 
  482000    1.0020725   -2.1162155   -2.1162155   -1.1033472  0.063256451   -2.1162155    1.0128683  1714209 
  483000    1.0019649   -2.1159084   -2.1159084   -1.1031489  0.061975618   -2.1159084    1.0127595  1714209 
  484000    1.0010214   -2.1150167   -2.1150167   -1.1032108  0.061743715   -2.1150167    1.0118059  1714209 
  485000     1.001376   -2.1148256   -2.1148256   -1.1026612   0.06516035   -2.1148256    1.0121643  1714209 
  486000     1.001756   -2.1150129   -2.1150129   -1.1024645  0.064926919   -2.1150129    1.0125484  1714209 
  487000    1.0010792   -2.1145508   -2.1145508   -1.1026864  0.064161253   -2.1145508    1.0118643  1714209 
  488000    1.0009761   -2.1147929   -2.1147929   -1.1030328   0.06525751   -2.1147929    1.0117601  1714209 
  489000    1.0017858   -2.1152908   -2.1152908   -1.1027123  0.063419693   -2.1152908    1.0125786  1714209 
  490000    1.0014448   -2.1146301   -2.1146301   -1.1023962  0.066232998   -2.1146301    1.0122338  1714209 
  491000    1.0010304   -2.1142983   -2.1142983   -1.1024834  0.064206664   -2.1142983     1.011815  1714209 
  492000    1.0011601   -2.1144552   -2.1144552   -1.1025091  0.064428811   -2.1144552    1.0119461  1714209 
  493000    1.0009841   -2.1139906   -2.1139906   -1.1022224  0.064464882   -2.1139906    1.0117682  1714209 
  494000    1.0008164    -2.114182    -2.114182   -1.1025833   0.06093593    -2.114182    1.0115986  1714209 
  495000    1.0010973   -2.1147945   -2.1147945   -1.1029118  0.059012342   -2.1147945    1.0118826  1714209 
  496000    1.0009757   -2.1145398   -2.1145398   -1.1027801  0.067691514   -2.1145398    1.0117597  1714209 
  497000    1.0012479    -2.114945    -2.114945   -1.1029101  0.065073054    -2.114945    1.0120349  1714209 
  498000    1.0016067   -2.1149015   -2.1149015    -1.102504  0.066758572   -2.1149015    1.0123975  1714209 
  499000    1.0022611   -2.1157616   -2.1157616   -1.1027027  0.065137094   -2.1157616    1.0130589  1714209 
  500000     1.001072   -2.1150602   -2.1150602   -1.1032032  0.064225532   -2.1150602    1.0118571  1714209 
  501000    1.0010248   -2.1148729   -2.1148729   -1.1030636  0.062899165   -2.1148729    1.0118094  1714209 
  502000    1.0001573   -2.1145378   -2.1145378   -1.1036054  0.060979032   -2.1145378    1.0109325  1714209 
  503000    1.0003114   -2.1144992   -2.1144992    -1.103411  0.066397158   -2.1144992    1.0110882  1714209 
  504000    1.0006603   -2.1146598   -2.1146598   -1.1032188   0.06189215   -2.1146598    1.0114409  1714209 
  505000    1.0021919   -2.1159139   -2.1159139   -1.1029249  0.062749218   -2.1159139     1.012989  1714209 
  506000    1.0013111   -2.1147183   -2.1147183   -1.1026195  0.062093535   -2.1147183    1.0120987  1714209 
  507000    1.0013004   -2.1148136   -2.1148136   -1.1027257  0.061792382   -2.1148136    1.0120879  1714209 
  508000    1.0022652   -2.1158538   -2.1158538   -1.1027907  0.061510338   -2.1158538    1.0130631  1714209 
  509000    1.0015264   -2.1152508   -2.1152508   -1.1029345  0.066487086   -2.1152508    1.0123164  1714209 
  510000    1.0011012   -2.1150919   -2.1150919   -1.1032054   0.06353131   -2.1150919    1.0118866  1714209 
  511000    1.0006559   -2.1147142   -2.1147142   -1.1032777  0.065413252   -2.1147142    1.0114365  1714209 
  512000    1.0007366   -2.1146381   -2.1146381   -1.1031201  0.061173081   -2.1146381     1.011518  1714209 
  513000    1.0011456   -2.1146892   -2.1146892   -1.1027578  0.066811246   -2.1146892    1.0119314  1714209 
  514000    1.0017153   -2.1156709   -2.1156709   -1.1031636  0.062840097   -2.1156709    1.0125073  1714209 
  515000    1.0008699    -2.114428    -2.114428   -1.1027752  0.065541872    -2.114428    1.0116527  1714209 
  516000    1.0013872    -2.115101    -2.115101   -1.1029254  0.062244483    -2.115101    1.0121756  1714209 
  517000    1.0018649   -2.1155208   -2.1155208   -1.1028623  0.065283533   -2.1155208    1.0126585  1714209 
  518000    1.0007936   -2.1143278   -2.1143278   -1.1027521   0.06352881   -2.1143278    1.0115756  1714209 
  519000    1.0013087   -2.1151923   -2.1151923   -1.1030961  0.061112807   -2.1151923    1.0120963  1714209 
  520000     1.001826   -2.1151763   -2.1151763   -1.1025572  0.061494814   -2.1151763    1.0126192  1714209 
  521000    1.0020109   -2.1152786   -2.1152786   -1.1024726  0.065277539   -2.1152786    1.0128061  1714209 
  522000    1.0012981   -2.1146769   -2.1146769   -1.1025913  0.063967309   -2.1146769    1.0120856  1714209 
  523000    1.0015464   -2.1147404   -2.1147404   -1.1024038  0.064625317   -2.1147404    1.0123365  1714209 
  524000    1.0010091   -2.1142455   -2.1142455   -1.1024521  0.064399487   -2.1142455    1.0117934  1714209 
  525000    1.0022043   -2.1154339   -2.1154339   -1.1024324  0.061415143   -2.1154339    1.0130015  1714209 
  526000    1.0021365   -2.1159213   -2.1159213   -1.1029884  0.065375862   -2.1159213     1.012933  1714209 
  527000    1.0012422   -2.1148753   -2.1148753   -1.1028463  0.065713836   -2.1148753     1.012029  1714209 
  528000    1.0014537    -2.115075    -2.115075   -1.1028322  0.065453308    -2.115075    1.0122428  1714209 
  529000    1.0021334   -2.1154965   -2.1154965   -1.1025666  0.063212716   -2.1154965    1.0129298  1714209 
  530000    1.0011478   -2.1148615   -2.1148615   -1.1029278   0.06459637   -2.1148615    1.0119336  1714209 
  531000    1.0015287   -2.1154725   -2.1154725   -1.1031539  0.065470383   -2.1154725    1.0123187  1714209 
  532000    1.0016497   -2.1157267   -2.1157267   -1.1032857  0.064487685   -2.1157267     1.012441  1714209 
  533000    1.0014303   -2.1151232   -2.1151232   -1.1029041  0.065757679   -2.1151232    1.0122191  1714209 
  534000    1.0020092   -2.1159418   -2.1159418   -1.1031375  0.063234565   -2.1159418    1.0128044  1714209 
  535000     1.001938   -2.1159792   -2.1159792   -1.1032469   0.06135641   -2.1159792    1.0127323  1714209 
  536000    1.0017013   -2.1155544   -2.1155544   -1.1030613  0.065486161   -2.1155544    1.0124931  1714209 
  537000    1.0011299   -2.1150443   -2.1150443   -1.1031288  0.063944462   -2.1150443    1.0119155  1714209 
  538000    1.0005573   -2.1144052   -2.1144052   -1.1030685  0.065547682   -2.1144052    1.0113367  1714209 
  539000    1.0017171   -2.1157486   -2.1157486   -1.1032395  0.063474389   -2.1157486    1.0125091  1714209 
  540000    1.0002607   -2.1139991   -2.1139991   -1.1029621  0.067675418   -2.1139991     1.011037  1714209 
  541000    1.0015763   -2.1152574   -2.1152574   -1.1028906  0.061340706   -2.1152574    1.0123668  1714209 
  542000    1.0015442   -2.1158418   -2.1158418   -1.1035074  0.062159195   -2.1158418    1.0123343  1714209 
  543000    1.0017176   -2.1160329   -2.1160329   -1.1035233  0.064899097   -2.1160329    1.0125096  1714209 
  544000     1.001757    -2.115607    -2.115607   -1.1030577  0.059314878    -2.115607    1.0125494  1714209 
  545000    1.0011294   -2.1153481   -2.1153481    -1.103433  0.064571116   -2.1153481    1.0119151  1714209 
  546000    1.0000593   -2.1144696   -2.1144696   -1.1036361  0.065210814   -2.1144696    1.0108334  1714209 
  547000     1.001439   -2.1155352   -2.1155352   -1.1033072  0.061733411   -2.1155352     1.012228  1714209 
  548000    1.0009295   -2.1150973   -2.1150973   -1.1033843  0.063732216   -2.1150973     1.011713  1714209 
  549000    1.0011855   -2.1149708   -2.1149708    -1.102999  0.064094292   -2.1149708    1.0119718  1714209 
  550000    1.0014202   -2.1152672   -2.1152672   -1.1030582  0.065332359   -2.1152672     1.012209  1714209 
  551000    1.0005298   -2.1146177   -2.1146177   -1.1033087  0.063130868   -2.1146177     1.011309  1714209 
  552000    1.0017639   -2.1152552   -2.1152552   -1.1026988  0.064157103   -2.1152552    1.0125564  1714209 
  553000    1.0021031   -2.1154267   -2.1154267   -1.1025275   0.06605506   -2.1154267    1.0128992  1714209 
  554000     1.001849    -2.115434    -2.115434   -1.1027916  0.064108054    -2.115434    1.0126424  1714209 
  555000    1.0015061   -2.1150395   -2.1150395   -1.1027437   0.06467331   -2.1150395    1.0122958  1714209 
  556000    1.0017767   -2.1154828   -2.1154828   -1.1029135  0.065809406   -2.1154828    1.0125693  1714209 
  557000     1.001861   -2.1152927   -2.1152927   -1.1026381  0.064373599   -2.1152927    1.0126545  1714209 
  558000    1.0026646   -2.1161801   -2.1161801   -1.1027133  0.063591588   -2.1161801    1.0134668  1714209 
  559000    1.0016847   -2.1151605   -2.1151605   -1.1026842  0.065470417   -2.1151605    1.0124764  1714209 
  560000    1.0015292   -2.1149765   -2.1149765   -1.1026573  0.063311262   -2.1149765    1.0123192  1714209 
  561000    1.0021881   -2.1158438   -2.1158438   -1.1028587  0.061286506   -2.1158438    1.0129851  1714209 
  562000    1.0013494   -2.1151869   -2.1151869   -1.1030495  0.064306404   -2.1151869    1.0121374  1714209 
  563000    1.0012477   -2.1149981   -2.1149981   -1.1029635  0.066479407   -2.1149981    1.0120346  1714209 
  564000    1.0016639   -2.1151444   -2.1151444   -1.1026891  0.065307733   -2.1151444    1.0124553  1714209 
  565000    1.0021602   -2.1155767   -2.1155767   -1.1026197  0.066487609   -2.1155767     1.012957  1714209 
  566000    1.0013673   -2.1151278   -2.1151278   -1.1029723  0.065961695   -2.1151278    1.0121555  1714209 
  567000    1.0018585   -2.1156051   -2.1156051   -1.1029532  0.067172033   -2.1156051     1.012652  1714209 
  568000    1.0015195   -2.1154345   -2.1154345   -1.1031251  0.065110417   -2.1154345    1.0123094  1714209 
  569000    1.0017626   -2.1154913   -2.1154913   -1.1029362  0.067385132   -2.1154913    1.0125551  1714209 
  570000     1.001942   -2.1150272   -2.1150272   -1.1022908   0.06163609   -2.1150272    1.0127364  1714209 
  571000    1.0017915   -2.1145577   -2.1145577   -1.1019734  0.063383951   -2.1145577    1.0125843  1714209 
  572000    1.0014636   -2.1147462   -2.1147462   -1.1024933  0.062727413   -2.1147462    1.0122529  1714209 
  573000    1.0013216   -2.1149731   -2.1149731   -1.1028637  0.065278706   -2.1149731    1.0121094  1714209 
  574000    1.0007948   -2.1146778   -2.1146778    -1.103101  0.066486566   -2.1146778    1.0115768  1714209 
  575000    1.0010326   -2.1149121   -2.1149121   -1.1030948  0.063082109   -2.1149121    1.0118172  1714209 
  576000    1.0009211    -2.115183    -2.115183   -1.1034785  0.064512096    -2.115183    1.0117045  1714209 
  577000    1.0022016   -2.1157618   -2.1157618    -1.102763  0.062858508   -2.1157618    1.0129988  1714209 
  578000    1.0020039   -2.1154412   -2.1154412   -1.1026423  0.067278728   -2.1154412     1.012799  1714209 
  579000    1.0024161   -2.1159267   -2.1159267   -1.1027111   0.06503413   -2.1159267    1.0132156  1714209 
  580000    1.0014004   -2.1148503   -2.1148503   -1.1026613  0.065471578   -2.1148503    1.0121889  1714209 
  581000    1.0028751   -2.1161561   -2.1161561   -1.1024765  0.062307515   -2.1161561    1.0136796  1714209 
  582000    1.0019625   -2.1152728   -2.1152728   -1.1025156  0.067571884   -2.1152728    1.0127572  1714209 
  583000    1.0026591   -2.1158303   -2.1158303   -1.1023691  0.062276001   -2.1158303    1.0134612  1714209 
  584000    1.0025004   -2.1160174   -2.1160174   -1.1027165  0.062503099   -2.1160174    1.0133009  1714209 
  585000     1.001303   -2.1143411   -2.1143411   -1.1022505  0.067203782   -2.1143411    1.0120905  1714209 
  586000     1.001722   -2.1145374   -2.1145374   -1.1020234  0.065127671   -2.1145374     1.012514  1714209 
  587000    1.0018774   -2.1146577   -2.1146577   -1.1019866  0.065832193   -2.1146577    1.0126711  1714209 
  588000    1.0015283   -2.1143207   -2.1143207   -1.1020025  0.069927624   -2.1143207    1.0123182  1714209 
  589000    1.0009284   -2.1137743   -2.1137743   -1.1020624   0.06489552   -2.1137743    1.0117119  1714209 
  590000    1.0016332   -2.1144821   -2.1144821   -1.1020578  0.065573368   -2.1144821    1.0124242  1714209 
  591000    1.0015085   -2.1147897   -2.1147897   -1.1024915  0.063889642   -2.1147897    1.0122982  1714209 
  592000    1.0001951   -2.1133482   -2.1133482   -1.1023775  0.061774047   -2.1133482    1.0109707  1714209 
  593000    1.0012208   -2.1150873   -2.1150873   -1.1030798  0.062999501   -2.1150873    1.0120075  1714209 
  594000    1.0010159   -2.1143448   -2.1143448   -1.1025445  0.061639047   -2.1143448    1.0118003  1714209 
  595000    1.0004715   -2.1135585   -2.1135585   -1.1023084  0.064223166   -2.1135585      1.01125  1714209 
  596000    1.0013044   -2.1148327   -2.1148327   -1.1027408  0.063690507   -2.1148327    1.0120919  1714209 
  597000    1.0008322   -2.1141569   -2.1141569   -1.1025422  0.069351604   -2.1141569    1.0116147  1714209 
  598000    1.0014537   -2.1148487   -2.1148487   -1.1026059  0.067484404   -2.1148487    1.0122429  1714209 
  599000    1.0012402   -2.1148722   -2.1148722   -1.1028452  0.062224796   -2.1148722     1.012027  1714209 
  600000    1.0019884    -2.115388    -2.115388   -1.1026047  0.061956977    -2.115388    1.0127833  1714209 
  601000    1.0018264   -2.1152551   -2.1152551   -1.1026355  0.064267339   -2.1152551    1.0126196  1714209 
  602000    1.0016705   -2.1150751   -2.1150751   -1.1026132  0.067104646   -2.1150751     1.012462  1714209 
  603000    1.0016426   -2.1145834   -2.1145834   -1.1021496  0.066649037   -2.1145834    1.0124338  1714209 
  604000    1.0007544   -2.1138679   -2.1138679   -1.1023319  0.064771149   -2.1138679     1.011536  1714209 
  605000    1.0017508   -2.1149033   -2.1149033   -1.1023602  0.065823374   -2.1149033    1.0125431  1714209 
  606000    1.0014474   -2.1142708   -2.1142708   -1.1020343  0.063913604   -2.1142708    1.0122365  1714209 
  607000    1.0012096   -2.1139989   -2.1139989   -1.1020029  0.065979942   -2.1139989    1.0119961  1714209 
  608000    1.0022779    -2.115228    -2.115228   -1.1021521  0.063463114    -2.115228     1.013076  1714209 
  609000    1.0018897   -2.1145642   -2.1145642   -1.1018807  0.067740325   -2.1145642    1.0126835  1714209 
  610000    1.0011749   -2.1137531   -2.1137531   -1.1017921  0.068798206   -2.1137531     1.011961  1714209 
  611000    1.0027847   -2.1154162   -2.1154162    -1.101828  0.063422875   -2.1154162    1.0135881  1714209 
  612000    1.0017838   -2.1144447   -2.1144447   -1.1018682  0.063482359   -2.1144447    1.0125765  1714209 
  613000     1.002159   -2.1146197   -2.1146197    -1.101664  0.062418992   -2.1146197    1.0129557  1714209 
  614000    1.0019946   -2.1145605   -2.1145605   -1.1017709  0.065480789   -2.1145605    1.0127896  1714209 
  615000    1.0007108   -2.1129456   -2.1129456   -1.1014537  0.067258095   -2.1129456    1.0114919  1714209 
  616000    1.0017984   -2.1145368   -2.1145368   -1.1019456   0.06508018   -2.1145368    1.0125912  1714209 
  617000    1.0012185   -2.1140755   -2.1140755   -1.1020704   0.06366791   -2.1140755    1.0120051  1714209 
  618000    1.0018609   -2.1147394   -2.1147394    -1.102085  0.065386895   -2.1147394    1.0126544  1714209 
  619000    1.0021105   -2.1150356   -2.1150356   -1.1021289   0.06447622   -2.1150356    1.0129067  1714209 
  620000    1.0014493   -2.1144781   -2.1144781   -1.1022396  0.064361503   -2.1144781    1.0122384  1714209 
  621000    1.0019538   -2.1145207   -2.1145207   -1.1017724  0.061981069   -2.1145207    1.0127484  1714209 
  622000     1.001741   -2.1141894   -2.1141894   -1.1016562  0.066092466   -2.1141894    1.0125332  1714209 
  623000    1.0014612   -2.1141115   -2.1141115   -1.1018611  0.065010183   -2.1141115    1.0122505  1714209 
  624000     1.001146   -2.1140633   -2.1140633   -1.1021315  0.067032049   -2.1140633    1.0119318  1714209 
  625000    1.0009638   -2.1141262   -2.1141262   -1.1023785  0.064804542   -2.1141262    1.0117477  1714209 
  626000    1.0017155   -2.1145858   -2.1145858   -1.1020783  0.061692705   -2.1145858    1.0125075  1714209 
  627000    1.0021685   -2.1151402   -2.1151402   -1.1021748  0.062140588   -2.1151402    1.0129653  1714209 
  628000    1.0016955   -2.1141455   -2.1141455   -1.1016583  0.062759001   -2.1141455    1.0124872  1714209 
  629000    1.0008154    -2.112888    -2.112888   -1.1012903  0.064190457    -2.112888    1.0115977  1714209 
  630000    1.0017659   -2.1139227   -2.1139227   -1.1013643  0.067379846   -2.1139227    1.0125584  1714209 
  631000    1.0018197   -2.1143864   -2.1143864   -1.1017736   0.06108222   -2.1143864    1.0126128  1714209 
  632000    1.0022392    -2.114526    -2.114526   -1.1014893  0.063595344    -2.114526    1.0130368  1714209 
  633000    1.0023467   -2.1147633   -2.1147633   -1.1016178   0.06512961   -2.1147633    1.0131455  1714209 
  634000    1.0022928   -2.1143031   -2.1143031   -1.1012122  0.064024048   -2.1143031    1.0130909  1714209 
  635000    1.0017072   -2.1140231   -2.1140231    -1.101524  0.061429501   -2.1140231    1.0124991  1714209 
  636000    1.0028471   -2.1153705   -2.1153705   -1.1017193  0.064075689   -2.1153705    1.0136512  1714209 
  637000    1.0021174   -2.1145265   -2.1145265   -1.1016128  0.060561272   -2.1145265    1.0129137  1714209 
  638000    1.0016517   -2.1143603   -2.1143603   -1.1019174  0.069426982   -2.1143603     1.012443  1714209 
  639000    1.0013432   -2.1140678   -2.1140678   -1.1019366  0.063286698   -2.1140678    1.0121311  1714209 
  640000    1.0011852   -2.1138384   -2.1138384   -1.1018669  0.066062463   -2.1138384    1.0119715  1714209 
  641000    1.0012276   -2.1135435   -2.1135435   -1.1015292  0.064916698   -2.1135435    1.0120143  1714209 
  642000    1.0012377   -2.1137058   -2.1137058   -1.1016813  0.068089503   -2.1137058    1.0120245  1714209 
[...]
 9832000    1.0104826    -2.084345    -2.084345    -1.062976  0.067210769    -2.084345     1.021369  1714209 
 9833000    1.0115475   -2.0860393   -2.0860393   -1.0635939  0.069752397   -2.0860393    1.0224453  1714209 
 9834000    1.0110197   -2.0856858   -2.0856858   -1.0637739   0.06939206   -2.0856858    1.0219119  1714209 
 9835000    1.0110771   -2.0847851   -2.0847851   -1.0628151  0.072055914   -2.0847851      1.02197  1714209 
 9836000    1.0110045   -2.0847237   -2.0847237   -1.0628271  0.068587581   -2.0847237    1.0218966  1714209 
 9837000    1.0111473   -2.0850975   -2.0850975   -1.0630566  0.070021371   -2.0850975    1.0220409  1714209 
 9838000     1.010512   -2.0846675   -2.0846675   -1.0632687  0.069231858   -2.0846675    1.0213988  1714209 
 9839000     1.010153   -2.0841221   -2.0841221   -1.0630863  0.069659683   -2.0841221    1.0210358  1714209 
 9840000    1.0107413    -2.084389    -2.084389   -1.0627585  0.069066516    -2.084389    1.0216305  1714209 
 9841000    1.0095665   -2.0831686   -2.0831686   -1.0627255  0.066786836   -2.0831686     1.020443  1714209 
 9842000    1.0091638   -2.0828575   -2.0828575   -1.0628216  0.068610525   -2.0828575     1.020036  1714209 
 9843000     1.009737   -2.0832522   -2.0832522   -1.0626368  0.071650387   -2.0832522    1.0206154  1714209 
 9844000    1.0102307   -2.0833219   -2.0833219   -1.0622075  0.066586791   -2.0833219    1.0211144  1714209 
 9845000    1.0109558   -2.0839674   -2.0839674   -1.0621202  0.068282532   -2.0839674    1.0218473  1714209 
 9846000    1.0104044   -2.0833339   -2.0833339   -1.0620439  0.068578555   -2.0833339    1.0212899  1714209 
 9847000    1.0105919   -2.0833586   -2.0833586   -1.0618792  0.066634895   -2.0833586    1.0214795  1714209 
 9848000      1.01094   -2.0835038   -2.0835038   -1.0616724  0.069344087   -2.0835038    1.0218313  1714209 
 9849000    1.0109184   -2.0837682   -2.0837682   -1.0619587  0.069539652   -2.0837682    1.0218096  1714209 
 9850000    1.0107312   -2.0837581   -2.0837581   -1.0621378  0.068701545   -2.0837581    1.0216203  1714209 
 9851000    1.0107811   -2.0838209   -2.0838209   -1.0621501  0.074390284   -2.0838209    1.0216707  1714209 
 9852000    1.0110021   -2.0839134   -2.0839134   -1.0620193  0.073137072   -2.0839134    1.0218941  1714209 
 9853000    1.0107747   -2.0832796   -2.0832796   -1.0616153  0.070717562   -2.0832796    1.0216642  1714209 
 9854000    1.0107619   -2.0828738   -2.0828738   -1.0612225  0.069668007   -2.0828738    1.0216513  1714209 
 9855000    1.0115871   -2.0836575   -2.0836575   -1.0611721  0.070833989   -2.0836575    1.0224854  1714209 
 9856000    1.0112667    -2.083199    -2.083199   -1.0610375  0.071108451    -2.083199    1.0221615  1714209 
 9857000    1.0109837   -2.0830377   -2.0830377   -1.0611622   0.07107017   -2.0830377    1.0218755  1714209 
 9858000     1.010401   -2.0823806   -2.0823806   -1.0610941  0.070724156   -2.0823806    1.0212865  1714209 
 9859000    1.0089641   -2.0808359   -2.0808359   -1.0610017  0.070956563   -2.0808359    1.0198342  1714209 
 9860000      1.01091   -2.0823179   -2.0823179   -1.0605169  0.070359466   -2.0823179     1.021801  1714209 
 9861000    1.0105187   -2.0815087   -2.0815087   -1.0601031   0.06999401   -2.0815087    1.0214055  1714209 
 9862000    1.0112678   -2.0821476   -2.0821476   -1.0599849  0.067973263   -2.0821476    1.0221627  1714209 
 9863000    1.0112649   -2.0823318   -2.0823318   -1.0601721  0.068605033   -2.0823318    1.0221597  1714209 
 9864000    1.0112378   -2.0821841   -2.0821841   -1.0600517  0.070317941   -2.0821841    1.0221323  1714209 
 9865000    1.0105496   -2.0816038   -2.0816038   -1.0601671  0.073282017   -2.0816038    1.0214368  1714209 
 9866000    1.0106724   -2.0817197   -2.0817197   -1.0601589  0.066449825   -2.0817197    1.0215608  1714209 
 9867000    1.0106217   -2.0822266   -2.0822266    -1.060717  0.070790318   -2.0822266    1.0215097  1714209 
 9868000    1.0098809   -2.0817396   -2.0817396   -1.0609787  0.072996634   -2.0817396    1.0207609  1714209 
 9869000    1.0104642    -2.081955    -2.081955   -1.0606045  0.071155614    -2.081955    1.0213505  1714209 
 9870000    1.0107142   -2.0819604   -2.0819604   -1.0603573   0.06947957   -2.0819604    1.0216031  1714209 
 9871000    1.0112987   -2.0829261   -2.0829261   -1.0607322  0.070757247   -2.0829261    1.0221939  1714209 
 9872000    1.0111283   -2.0827249   -2.0827249   -1.0607032   0.06733442   -2.0827249    1.0220217  1714209 
 9873000    1.0112599   -2.0824778   -2.0824778   -1.0603232  0.070346275   -2.0824778    1.0221547  1714209 
 9874000    1.0112729   -2.0825458   -2.0825458    -1.060378  0.071210086   -2.0825458    1.0221678  1714209 
 9875000    1.0110222    -2.082617    -2.082617   -1.0607026  0.069273603    -2.082617    1.0219144  1714209 
 9876000    1.0105605   -2.0821156   -2.0821156   -1.0606679  0.069751879   -2.0821156    1.0214477  1714209 
 9877000    1.0099524   -2.0822235   -2.0822235   -1.0613904  0.074033493   -2.0822235    1.0208331  1714209 
 9878000    1.0106959    -2.083098    -2.083098   -1.0615134  0.069638045    -2.083098    1.0215847  1714209 
 9879000      1.01097   -2.0833875   -2.0833875   -1.0615259  0.069802621   -2.0833875    1.0218617  1714209 
 9880000    1.0116227   -2.0837252   -2.0837252   -1.0612038   0.07264343   -2.0837252    1.0225214  1714209 
 9881000    1.0116675   -2.0842831   -2.0842831   -1.0617164   0.06846897   -2.0842831    1.0225667  1714209 
 9882000    1.0118609   -2.0840374   -2.0840374   -1.0612752  0.070871223   -2.0840374    1.0227621  1714209 
 9883000    1.0114205   -2.0836764   -2.0836764   -1.0613594  0.075150334   -2.0836764     1.022317  1714209 
 9884000     1.011352   -2.0841209   -2.0841209   -1.0618731  0.072353574   -2.0841209    1.0222478  1714209 
 9885000    1.0112453    -2.084203    -2.084203   -1.0620631  0.067139828    -2.084203    1.0221399  1714209 
 9886000    1.0116846   -2.0847213   -2.0847213   -1.0621373  0.069371054   -2.0847213    1.0225839  1714209 
 9887000    1.0111311   -2.0840416   -2.0840416   -1.0620171  0.073066411   -2.0840416    1.0220245  1714209 
 9888000    1.0113792   -2.0843434   -2.0843434   -1.0620682  0.069239367   -2.0843434    1.0222752  1714209 
 9889000    1.0114141    -2.084627    -2.084627   -1.0623164  0.071521103    -2.084627    1.0223106  1714209 
 9890000    1.0116188    -2.085104    -2.085104   -1.0625865  0.072921209    -2.085104    1.0225174  1714209 
 9891000     1.010629   -2.0840704   -2.0840704   -1.0625533  0.073857273   -2.0840704     1.021517  1714209 
 9892000    1.0116658    -2.084519    -2.084519    -1.061954  0.068744088    -2.084519    1.0225649  1714209 
 9893000    1.0107564   -2.0837892   -2.0837892   -1.0621435  0.072411107   -2.0837892    1.0216457  1714209 
 9894000    1.0107914   -2.0839345   -2.0839345   -1.0622534  0.069350065   -2.0839345    1.0216811  1714209 
 9895000    1.0114307   -2.0844864   -2.0844864   -1.0621591  0.071360873   -2.0844864    1.0223274  1714209 
 9896000    1.0112815   -2.0845514   -2.0845514   -1.0623749  0.071512661   -2.0845514    1.0221765  1714209 
 9897000    1.0112387    -2.084435    -2.084435   -1.0623017  0.071488041    -2.084435    1.0221332  1714209 
 9898000    1.0103251   -2.0829529   -2.0829529   -1.0617431  0.072953868   -2.0829529    1.0212098  1714209 
 9899000    1.0109321   -2.0833565   -2.0833565   -1.0615332  0.071873628   -2.0833565    1.0218233  1714209 
 9900000    1.0116412   -2.0839647   -2.0839647   -1.0614246  0.073242658   -2.0839647    1.0225401  1714209 
 9901000    1.0120373   -2.0842775   -2.0842775    -1.061337  0.074800011   -2.0842775    1.0229405  1714209 
 9902000    1.0115311   -2.0842617   -2.0842617   -1.0618329  0.071835243   -2.0842617    1.0224289  1714209 
 9903000    1.0117354   -2.0840729   -2.0840729   -1.0614376  0.073242389   -2.0840729    1.0226353  1714209 
 9904000     1.013196    -2.085496    -2.085496   -1.0613843  0.073276755    -2.085496    1.0241117  1714209 
 9905000    1.0125214    -2.084535    -2.084535   -1.0611052  0.072957152    -2.084535    1.0234297  1714209 
 9906000    1.0129181   -2.0850055   -2.0850055   -1.0611748  0.073618917   -2.0850055    1.0238308  1714209 
 9907000     1.013162   -2.0854884   -2.0854884   -1.0614111  0.076770435   -2.0854884    1.0240773  1714209 
 9908000    1.0123785   -2.0846608   -2.0846608   -1.0613754   0.07138813   -2.0846608    1.0232854  1714209 
 9909000    1.0119581   -2.0839459   -2.0839459   -1.0610855  0.074827121   -2.0839459    1.0228604  1714209 
 9910000    1.0124495   -2.0846636   -2.0846636   -1.0613065  0.070476065   -2.0846636    1.0233571  1714209 
 9911000    1.0114195    -2.083483    -2.083483    -1.061167  0.072480901    -2.083483     1.022316  1714209 
 9912000    1.0122554   -2.0846382   -2.0846382   -1.0614772  0.069225768   -2.0846382     1.023161  1714209 
 9913000     1.011072   -2.0830675   -2.0830675   -1.0611027  0.070933703   -2.0830675    1.0219648  1714209 
 9914000     1.011071   -2.0831569   -2.0831569   -1.0611931  0.071785732   -2.0831569    1.0219638  1714209 
 9915000    1.0106762   -2.0829255   -2.0829255   -1.0613608  0.074201144   -2.0829255    1.0215647  1714209 
 9916000    1.0119035   -2.0838806   -2.0838806   -1.0610754  0.071437578   -2.0838806    1.0228052  1714209 
 9917000     1.011167    -2.083372    -2.083372   -1.0613112  0.071707366    -2.083372    1.0220608  1714209 
 9918000     1.010648   -2.0832127   -2.0832127   -1.0616765  0.076298084   -2.0832127    1.0215362  1714209 
 9919000    1.0111623   -2.0841927   -2.0841927   -1.0621366  0.072974181   -2.0841927     1.022056  1714209 
 9920000    1.0111581   -2.0838879   -2.0838879   -1.0618361  0.075764176   -2.0838879    1.0220518  1714209 
 9921000    1.0116791   -2.0841489   -2.0841489   -1.0615705  0.068790859   -2.0841489    1.0225784  1714209 
 9922000    1.0097738   -2.0833203   -2.0833203   -1.0626677   0.07038903   -2.0833203    1.0206526  1714209 
 9923000    1.0111585   -2.0836199   -2.0836199   -1.0615677  0.069865158   -2.0836199    1.0220522  1714209 
 9924000    1.0112128   -2.0834173   -2.0834173   -1.0613102  0.073612792   -2.0834173    1.0221071  1714209 
 9925000    1.0104867   -2.0827313   -2.0827313   -1.0613581  0.066952884   -2.0827313    1.0213731  1714209 
 9926000     1.011722   -2.0838797   -2.0838797   -1.0612579  0.066255622   -2.0838797    1.0226218  1714209 
 9927000    1.0115364   -2.0836146   -2.0836146   -1.0611804  0.075489439   -2.0836146    1.0224342  1714209 
 9928000    1.0107379   -2.0825021   -2.0825021    -1.060875  0.071321832   -2.0825021    1.0216271  1714209 
 9929000     1.010596   -2.0822169   -2.0822169   -1.0607333  0.068704295   -2.0822169    1.0214836  1714209 
 9930000    1.0113176   -2.0828678   -2.0828678   -1.0606547  0.069856422   -2.0828678     1.022213  1714209 
 9931000    1.0114111   -2.0825376   -2.0825376   -1.0602301  0.070106283   -2.0825376    1.0223075  1714209 
 9932000    1.0104932   -2.0821499   -2.0821499   -1.0607702  0.067810543   -2.0821499    1.0213797  1714209 
 9933000    1.0111394   -2.0830786   -2.0830786   -1.0610458   0.06864398   -2.0830786    1.0220329  1714209 
 9934000    1.0111951   -2.0835592   -2.0835592     -1.06147  0.068988467   -2.0835592    1.0220892  1714209 
 9935000    1.0105283   -2.0826563   -2.0826563   -1.0612411  0.070333975   -2.0826563    1.0214152  1714209 
 9936000    1.0111055   -2.0828122   -2.0828122   -1.0608136  0.067712239   -2.0828122    1.0219986  1714209 
 9937000      1.01099    -2.082568    -2.082568   -1.0606861  0.070365855    -2.082568    1.0218819  1714209 
 9938000    1.0097372   -2.0814033   -2.0814033   -1.0607877  0.068064085   -2.0814033    1.0206156  1714209 
 9939000    1.0110244   -2.0828994   -2.0828994   -1.0609827  0.073971657   -2.0828994    1.0219167  1714209 
 9940000    1.0110188   -2.0828772   -2.0828772   -1.0609661  0.073753967   -2.0828772     1.021911  1714209 
 9941000    1.0115153   -2.0829112   -2.0829112   -1.0604984  0.069738963   -2.0829112    1.0224128  1714209 
 9942000    1.0109325   -2.0824535   -2.0824535   -1.0606297  0.071861197   -2.0824535    1.0218238  1714209 
 9943000    1.0110245    -2.083114    -2.083114   -1.0611973  0.066901187    -2.083114    1.0219168  1714209 
 9944000     1.011736   -2.0835817   -2.0835817   -1.0609458  0.071554627   -2.0835817    1.0226359  1714209 
 9945000    1.0112321   -2.0832198   -2.0832198   -1.0610932  0.072314229   -2.0832198    1.0221266  1714209 
 9946000    1.0114202   -2.0833877   -2.0833877   -1.0610709  0.073764927   -2.0833877    1.0223167  1714209 
 9947000    1.0120686   -2.0842611   -2.0842611    -1.061289  0.072000721   -2.0842611    1.0229721  1714209 
 9948000    1.0112308   -2.0839237   -2.0839237   -1.0617985  0.070521598   -2.0839237    1.0221253  1714209 
 9949000    1.0113615   -2.0839217   -2.0839217   -1.0616644  0.069293623   -2.0839217    1.0222573  1714209 
 9950000    1.0112279    -2.084013    -2.084013   -1.0618907  0.071692388    -2.084013    1.0221223  1714209 
 9951000     1.012165   -2.0841359   -2.0841359   -1.0610663  0.072053568   -2.0841359    1.0230696  1714209 
 9952000    1.0109927   -2.0834847   -2.0834847   -1.0616001  0.068983684   -2.0834847    1.0218846  1714209 
 9953000    1.0105719   -2.0832797   -2.0832797   -1.0618204  0.068953569   -2.0832797    1.0214592  1714209 
 9954000     1.010767     -2.08359     -2.08359   -1.0619334  0.071366971     -2.08359    1.0216565  1714209 
 9955000    1.0109211   -2.0843348   -2.0843348   -1.0625225    0.0717958   -2.0843348    1.0218123  1714209 
 9956000    1.0102751   -2.0839899   -2.0839899   -1.0628306  0.070249852   -2.0839899    1.0211593  1714209 
 9957000    1.0106695   -2.0844485   -2.0844485   -1.0628906  0.069008983   -2.0844485    1.0215579  1714209 
 9958000    1.0102376   -2.0835712   -2.0835712   -1.0624499  0.071283959   -2.0835712    1.0211214  1714209 
 9959000    1.0110991   -2.0844434   -2.0844434   -1.0624513  0.070034149   -2.0844434    1.0219921  1714209 
 9960000    1.0112974   -2.0843496   -2.0843496   -1.0621569  0.070125215   -2.0843496    1.0221926  1714209 
 9961000    1.0115332   -2.0846949   -2.0846949    -1.062264  0.068418556   -2.0846949    1.0224309  1714209 
 9962000     1.011111   -2.0844709   -2.0844709   -1.0624667  0.071597681   -2.0844709    1.0220042  1714209 
 9963000    1.0108468    -2.083478    -2.083478   -1.0617408  0.071098695    -2.083478    1.0217372  1714209 
 9964000    1.0112777   -2.0841255   -2.0841255   -1.0619528  0.073710274   -2.0841255    1.0221727  1714209 
 9965000    1.0108696    -2.083939    -2.083939   -1.0621788  0.071793811    -2.083939    1.0217602  1714209 
 9966000    1.0118177   -2.0851061   -2.0851061   -1.0623876  0.068471421   -2.0851061    1.0227185  1714209 
 9967000    1.0115796     -2.08458     -2.08458   -1.0621021  0.067731081     -2.08458    1.0224778  1714209 
 9968000    1.0121367     -2.08493     -2.08493   -1.0618891  0.069061701     -2.08493    1.0230409  1714209 
 9969000    1.0119107   -2.0848858   -2.0848858   -1.0620733  0.074418549   -2.0848858    1.0228125  1714209 
 9970000    1.0119627   -2.0851669   -2.0851669   -1.0623018  0.072998828   -2.0851669    1.0228651  1714209 
 9971000     1.010654   -2.0840269   -2.0840269   -1.0624847  0.070586142   -2.0840269    1.0215422  1714209 
 9972000     1.010564   -2.0839389   -2.0839389   -1.0624876  0.072623642   -2.0839389    1.0214513  1714209 
 9973000    1.0114599   -2.0845986   -2.0845986   -1.0622417  0.071939502   -2.0845986    1.0223569  1714209 
 9974000    1.0121311   -2.0848535   -2.0848535   -1.0618182  0.073565715   -2.0848535    1.0230353  1714209 
 9975000    1.0106268   -2.0831699   -2.0831699   -1.0616551  0.071372118   -2.0831699    1.0215147  1714209 
 9976000    1.0115487   -2.0839528   -2.0839528   -1.0615062  0.072682018   -2.0839528    1.0224466  1714209 
 9977000    1.0118241   -2.0841583   -2.0841583   -1.0614334  0.069952566   -2.0841583     1.022725  1714209 
 9978000    1.0124436   -2.0849386   -2.0849386   -1.0615874  0.072128003   -2.0849386    1.0233511  1714209 
 9979000    1.0114176   -2.0842421   -2.0842421    -1.061928  0.073790509   -2.0842421    1.0223141  1714209 
 9980000    1.0115947   -2.0843317   -2.0843317   -1.0618386  0.071793604   -2.0843317    1.0224931  1714209 
 9981000    1.0117405   -2.0844996   -2.0844996   -1.0618591   0.07597587   -2.0844996    1.0226405  1714209 
 9982000    1.0118611    -2.084783    -2.084783   -1.0620207  0.071902675    -2.084783    1.0227624  1714209 
 9983000    1.0111873   -2.0843761   -2.0843761   -1.0622948   0.07042786   -2.0843761    1.0220813  1714209 
 9984000    1.0107449   -2.0840259   -2.0840259   -1.0623918  0.074225885   -2.0840259    1.0216341  1714209 
 9985000    1.0113003   -2.0841782   -2.0841782   -1.0619827  0.069120846   -2.0841782    1.0221955  1714209 
 9986000    1.0100582   -2.0831551   -2.0831551    -1.062215  0.069213411   -2.0831551    1.0209401  1714209 
 9987000    1.0104277   -2.0833447   -2.0833447   -1.0620312  0.069525218   -2.0833447    1.0213135  1714209 
 9988000    1.0112114   -2.0847802   -2.0847802   -1.0626746  0.067737759   -2.0847802    1.0221056  1714209 
 9989000    1.0099758   -2.0839824   -2.0839824   -1.0631257  0.069467524   -2.0839824    1.0208567  1714209 
 9990000    1.0099797   -2.0837276   -2.0837276    -1.062867  0.069718791   -2.0837276    1.0208607  1714209 
 9991000      1.01047   -2.0841228   -2.0841228   -1.0627666  0.072843489   -2.0841228    1.0213562  1714209 
 9992000     1.010415    -2.084041    -2.084041   -1.0627403  0.071526371    -2.084041    1.0213007  1714209 
 9993000    1.0114792   -2.0847939   -2.0847939   -1.0624175   0.06836796   -2.0847939    1.0223764  1714209 
 9994000     1.011105   -2.0838636   -2.0838636   -1.0618654  0.069758847   -2.0838636    1.0219982  1714209 
 9995000    1.0108403   -2.0838163   -2.0838163   -1.0620857  0.070226519   -2.0838163    1.0217306  1714209 
 9996000    1.0105071   -2.0834909   -2.0834909   -1.0620971  0.067571647   -2.0834909    1.0213938  1714209 
 9997000    1.0107414    -2.083677    -2.083677   -1.0620464  0.068410472    -2.083677    1.0216306  1714209 
 9998000    1.0115324   -2.0840588   -2.0840588   -1.0616286  0.068925296   -2.0840588    1.0224302  1714209 
 9999000    1.0116421   -2.0838487   -2.0838487   -1.0613077  0.070926301   -2.0838487     1.022541  1714209 
10000000    1.0123358   -2.0844133   -2.0844133   -1.0611711  0.075432309   -2.0844133    1.0232422  1714209 
Loop time of 19307.4 on 768 procs for 10000000 steps with 1714209 atoms

Performance: 223748.863 tau/day, 517.937 timesteps/s
91.5% CPU use with 768 MPI tasks x 1 OpenMP threads

MPI task timing breakdown:
Section |  min time  |  avg time  |  max time  |%varavg|  %CPU | %total
-----------------------------------------------------------------------
Pair    | 1674.1     | 4375.7     | 6801.2     |1570.8 |  92.8 | 22.66
Bond    | 6.3954     | 6.8401     | 7.2501     |   5.3 | 100.0 |  0.04
Neigh   | 1800.2     | 4175.5     | 5219.3     | 913.9 |  98.8 | 21.63
Comm    | 3380.2     | 6255.1     | 10791      |1626.9 |  88.7 | 32.40
Output  | 509.2      | 511.04     | 512.95     |   3.8 |  80.6 |  2.65
Modify  | 2916.9     | 3619.1     | 4542.1     | 518.5 |  88.9 | 18.74
Other   |            | 364        |            |       |       |  1.89

Nlocal:        2232.04 ave        3018 max        1628 min
Histogram: 3 7 71 222 259 143 52 6 4 1
Nghost:        5528.72 ave       10337 max        2661 min
Histogram: 63 57 133 173 154 119 46 15 5 3
Neighs:        41416.2 ave       70267 max       11354 min
Histogram: 46 28 57 103 130 131 107 93 45 28

Total # of neighbors = 31807631
Ave neighs/atom = 18.555282
Ave special neighs/atom = 0.0000000
Neighbor list builds = 1000000
Dangerous builds = 990000

Total wall time: 5:22:03
