LAMMPS (29 Oct 2020)
  using 1 OpenMP thread(s) per MPI task
Reading data file ...
  orthogonal box = (-100.00000 -100.00000 -100.00000) to (100.00000 100.00000 100.00000)
  1 by 1 by 2 MPI processor grid
  reading atoms ...
  1 atoms
  1 bodies
  read_data CPU = 0.034 seconds
Replicating atoms ...
  orthogonal box = (-100.00000 -100.00000 -100.00000) to (700.00000 700.00000 700.00000)
  1 by 1 by 2 MPI processor grid
  64 atoms
  replicate CPU = 0.011 seconds
Neighbor list info ...
  update every 1 steps, delay 0 steps, check yes
  max neighbors/atom: 2000, page size: 100000
  master list distance cutoff = 87.10254
  ghost atom cutoff = 87.10254
  binsize = 43.55127, bins = 19 19 19
  1 neighbor lists, perpetual/occasional/extra = 1 0 0
  (1) pair body/rounded/polyhedron, perpetual
      attributes: half, newton on
      pair build: half/bin/atomonly/newton
      stencil: half/bin/3d/newton
      bin: standard
Setting up Verlet run ...
  Unit style    : nano
  Current step  : 0
  Time step     : 0.001
Per MPI rank memory allocation (min/avg/max) = 9.235 | 9.235 | 9.235 Mbytes
Step KinEng PotEng TotEng c_p c_t 
       0    391.41439            0    391.41439 5.0965415e-07          300 
 1000000    1.0324873    171.65972     172.6922 0.00066397328   0.79135102 
 2000000    96.275913   -15096.299   -15000.023 0.0019822287    73.790783 
 3000000    128.01168    -21608.31   -21480.299 0.0028234173    98.114698 
 4000000     33.51141   -36686.634   -36653.122  0.005026726    25.684858 
 5000000    128.19376   -37151.569   -37023.376 0.0050821084    98.254254 
 6000000    72.469393   -45916.663   -45844.193 0.0058101991    55.544248 
 7000000    49.222227   -52045.604   -51996.382 0.0068613867    37.726431 
 8000000    35.788137   -59794.715   -59758.927 0.0078046162    27.429858 
 9000000    47.487635    -62926.86   -62879.372 0.0091158986    36.396951 
10000000     57.46539   -70398.795   -70341.329   0.01037727    44.044413 
11000000    60.359831   -71060.551   -71000.191  0.011496009    46.262861 
12000000    25.481589   -73518.706   -73493.225  0.011910889    19.530393 
13000000     40.21819   -78767.212   -78726.994  0.013658238    30.825277 
14000000    14.397171   -73291.456   -73277.059  0.013608898    11.034728 
15000000    68.804965   -78273.411   -78204.606   0.01532485    52.735643 
16000000    12.328001   -84636.576   -84624.248  0.015888958    9.4488105 
17000000    17.518878   -82736.914   -82719.395  0.016783542    13.427364 
18000000    9.1833394   -84218.794    -84209.61  0.017064222    7.0385808 
19000000    24.449468    -76869.72    -76845.27  0.019113811    18.739322 
20000000    6.0455166   -81137.162   -81131.117  0.019095675     4.633593 
21000000   0.52442562   -16503.093   -16502.568  0.021530194   0.40194661 
22000000     5.937139   -41066.457    -41060.52  0.019929835    4.5505269 
23000000   0.44345513   -50735.745   -50735.302  0.021188368   0.33988668 
24000000   0.16063516   -45271.171   -45271.011   0.02226213     0.123119 
25000000    24.231795   -7789.4147   -7765.1829 0.0078672677    18.572487 
26000000  0.091841327   -7497.6731   -7497.5812 0.0069832549  0.070391889 
27000000    3.9608587   -52727.376   -52723.415  0.023886934    3.0358046 
28000000   0.21031558   -55518.306   -55518.095  0.025358563   0.16119661 
29000000   0.24926056   -60642.859    -60642.61  0.027710199   0.19104604 
30000000    17.140196     -29840.9    -29823.76  0.014868923    13.137122 
31000000  0.097876362   -61513.608    -61513.51  0.031084283  0.075017448 
32000000   0.23454976   -54571.894    -54571.66  0.031903073   0.17977093 
33000000  0.093613906    -59538.26   -59538.166  0.032864156  0.071750484 
34000000    8.4510167   -52718.659   -52710.208  0.034453969    6.4772913 
35000000   0.11276511   -58467.867   -58467.754  0.034860989  0.086428945 
