LAMMPS (24 Dec 2020)
OMP_NUM_THREADS environment is not set. Defaulting to 1 thread. (src/comm.cpp:94)
  using 1 OpenMP thread(s) per MPI task
#Read the equilibrated lj fluid and add nanocubes

units           lj
atom_style      full
#atom_modify     map array first cubes
dimension       3
boundary        p p f
pair_style      lj/cut/opt 2.5

variable        sigma           equal 1.0
variable        epsilon         equal 1.0
read_restart	restart.dat.4000000
Reading restart file ...
  restart file = 24 Dec 2020, LAMMPS = 24 Dec 2020
  restoring atom style full from restart
  orthogonal box = (0.0000000 0.0000000 0.0000000) to (80.000000 80.000000 160.00000)
  6 by 4 by 12 MPI processor grid
  restoring pair style lj/cut/opt from restart
  545227 atoms
Finding 1-2 1-3 1-4 neighbors ...
  special bond factors lj:    0        0        0       
  special bond factors coul:  0        0        0       
     0 = max # of 1-2 neighbors
     0 = max # of 1-3 neighbors
     0 = max # of 1-4 neighbors
     1 = max # of special neighbors
  special bonds CPU = 2.316 seconds
  read_restart CPU = 2.845 seconds

group		solvent type 1
472075 atoms in group solvent
group 		hull  type 2
28544 atoms in group hull
group 		dummy type 3
44608 atoms in group dummy

neighbor      0.4 bin
neigh_modify  exclude molecule/intra cubes


pair_modify   shift yes

pair_coeff    1 1 1.0 1.0 #solvent
pair_coeff    2 2 1.0 1.0 1.12 #np
pair_coeff    3 3 0.0 0.0 0.0 #dummy
pair_coeff    2 3 0.0 0.0 0.0 #np dummy
pair_coeff    1 2 1.0 1.0 #np solvent
pair_coeff    1 3 0.0 0.0 0.0 #dummy solvent


comm_modify   mode multi cutoff/multi 1 2.5 cutoff/multi 2 2.5 cutoff/multi 3 8.67



balance 	1.05 shift z 10 1.05
Balancing ...
Unused restart file global fix info:
  fix style: STORE, fix ID: msd_COMPUTE_STORE
Unused restart file peratom fix info:
  fix style: STORE, fix ID: bin1_COMPUTE_STORE
Neighbor list info ...
  update every 1 steps, delay 10 steps, check yes
  max neighbors/atom: 2000, page size: 100000
  master list distance cutoff = 2.9
  ghost atom cutoff = 8.67
  binsize = 1.45, bins = 56 56 111
  1 neighbor lists, perpetual/occasional/extra = 1 0 0
  (1) pair lj/cut/opt, perpetual
      attributes: half, newton on
      pair build: half/bin/newton
      stencil: half/bin/3d/newton
      bin: standard
 rebalancing time: 0.061 seconds
  iteration count = 4
  initial/final maximal load/proc = 2989.0000 2628.0000
  initial/final imbalance factor  = 1.5788506 1.3881631
  x cuts: 0.0000000 0.16666667 0.33333333 0.50000000 0.66666667 0.83333333 1.0000000
  y cuts: 0.0000000 0.25000000 0.50000000 0.75000000 1.0000000
  z cuts: 0.0000000 0.078125000 0.15104167 0.21354167 0.28645833 0.34895833 0.42187500 0.48958333 0.57291667 0.63541667 0.71875000 0.80208333 1.0000000

####################### WALLS ###########################

variable       epsilonWall equal 2*${epsilon}
variable       epsilonWall equal 2*1
variable       repulsive   equal   0.7147*${sigma}
variable       repulsive   equal   0.7147*1
variable       full	   equal   3*${sigma}
variable       full	   equal   3*1
region         lowWall block EDGE EDGE EDGE EDGE EDGE 2

fix            topWall all wall/lj93 zhi EDGE 	       ${epsilonWall} ${sigma} ${repulsive} units box
fix            topWall all wall/lj93 zhi EDGE 	       2 ${sigma} ${repulsive} units box
fix            topWall all wall/lj93 zhi EDGE 	       2 1 ${repulsive} units box
fix            topWall all wall/lj93 zhi EDGE 	       2 1 0.7147 units box
fix            lowSol solvent wall/lj93 zlo EDGE                ${epsilonWall} ${sigma} ${full} units box
fix            lowSol solvent wall/lj93 zlo EDGE                2 ${sigma} ${full} units box
fix            lowSol solvent wall/lj93 zlo EDGE                2 1 ${full} units box
fix            lowSol solvent wall/lj93 zlo EDGE                2 1 3 units box
fix 	       lowCub cubes wall/lj93 zlo EDGE                ${epsilonWall} ${sigma} ${repulsive} units box
fix 	       lowCub cubes wall/lj93 zlo EDGE                2 ${sigma} ${repulsive} units box
fix 	       lowCub cubes wall/lj93 zlo EDGE                2 1 ${repulsive} units box
fix 	       lowCub cubes wall/lj93 zlo EDGE                2 1 0.7147 units box


###################### COMPUTES ##########################

compute        bin1 solvent chunk/atom bin/1d z lower 1.0 units box


######################  FIXES ############################


fix             peclet solvent ave/chunk 10 10 10000 bin1 density/number norm                  none ave one file density.profile

fix              temp solvent ave/chunk 10 10 10000 bin1 temp norm                  none ave one file temp.profile

fix             1 cubes rigid/nve/small molecule
  create bodies CPU = 0.008 seconds
  64 rigid bodies with 73152 atoms
  6.9282032 = max distance from body owner to body atom

fix             2 solvent nve


## Thermostat
region          regthermo block EDGE EDGE EDGE EDGE 0 20
group           thermo dynamic solvent region regthermo every 1000
dynamic group thermo defined
fix             3 thermo langevin ${temp} ${temp} 10 156453
fix             3 thermo langevin 1.0 ${temp} 10 156453
fix             3 thermo langevin 1.0 1.0 10 156453

## Evaporation
region		regevap block EDGE EDGE EDGE EDGE 140 EDGE units box
fix		4 solvent evaporate ${evap} 1 regevap 156415
fix		4 solvent evaporate 35 1 regevap 156415


#### Load balancing

fix             bal all balance 1000 1.05 shift z 10 1.05

############### Diagnostics and computes ###################

compute        	com cubes          rigid/local   1 mol x y z
compute        	quat cubes         rigid/local   1 mol quatw quati quatj quatk

compute 	cc2 cubes 	   chunk/atom 	 molecule
compute 	msd cubes 	   msd/chunk 	 cc2

fix 		msd all ave/time  1 1 10000 c_msd[*] file dump.msd ave one mode vector

dump            1 all custom 500000 dump.lammpstrj id mol type x y z
dump		cubetrj hull custom 500000 cubes.lammpstrj id mol type x y z
dump            com cubes local 10000 dump.*.xyz c_com[*]
dump	        xyz hull xyz 100000 cubes.xyz
dump            quat cubes      local 10000 dump.*.quat c_quat[*]
#dump		mol cubes molfile 10000 mol.xyz xyz


dump            2 all image 10000 image.*.png type type zoom 1.6
dump_modify     2 pad 8
dump		image cubes image 10000 image_cubes.*.png type type zoom 1.6
dump_modify	image pad 8
dump            3 all movie 5000 movie.avi type type zoom 1.6
dump		4 cubes movie 5000 movie_cubes.avi type type zoom 1.6


thermo          1000
thermo_style    custom step temp epair evdwl etotal press pe ke atoms

restart         1000000 restart.dat
timestep        0.005
timer           full
New timer settings: style=full  mode=nosync  timeout=off

run 		20000000
Per MPI rank memory allocation (min/avg/max) = 14.65 | 18.54 | 23.98 Mbytes
Step Temp E_pair E_vdwl TotEng Press PotEng KinEng Atoms 
 4000000     1.000123   -2.9910719   -2.9910719   -1.6918147  0.074050593   -2.9910719    1.2992572   545227 
 4001000    1.0011441   -2.9931299   -2.9931299    -1.692477  0.060854335   -2.9931299    1.3006529   545198 
 4002000    1.0010182   -2.9939346   -2.9939346   -1.6933785  0.062889128   -2.9939346    1.3005561   545170 
 4003000    1.0022745   -2.9947281   -2.9947281   -1.6924705  0.070661214   -2.9947281    1.3022576   545141 
 4004000     1.000541   -2.9924545   -2.9924545     -1.69238   0.07065152   -2.9924545    1.3000745   545112 
 4005000    1.0005048   -2.9928338   -2.9928338   -1.6927396  0.071294858   -2.9928338    1.3000942   545084 
 4006000    1.0012178   -2.9938945   -2.9938945   -1.6928046  0.064339243   -2.9938945    1.3010899   545055 
 4007000    1.0016196   -2.9936172   -2.9936172   -1.6919383  0.067315567   -2.9936172    1.3016789   545027 
 4008000    0.9989653   -2.9900571   -2.9900571   -1.6917585  0.059758002   -2.9900571    1.2982986   544998 
 4009000    1.0026325   -2.9937655   -2.9937655   -1.6906339  0.065475622   -2.9937655    1.3031316   544970 
 4010000    1.0013524   -2.9935999   -2.9935999   -1.6920629  0.057846382   -2.9935999     1.301537   544941 
 4011000    1.0020647   -2.9945121   -2.9945121   -1.6919798  0.063080334   -2.9945121    1.3025322   544912 
 4012000    1.0012413   -2.9931594   -2.9931594   -1.6916306  0.061144954   -2.9931594    1.3015288   544884 
 4013000    1.0006641   -2.9918193   -2.9918193   -1.6909715  0.059902048   -2.9918193    1.3008478   544855 
 4014000    1.0006141   -2.9917879   -2.9917879   -1.6909383  0.067790737   -2.9917879    1.3008496   544827 
 4015000    1.0026985    -2.993759    -2.993759   -1.6901302  0.060722904    -2.993759    1.3036288   544798 
 4016000   0.99964343   -2.9910088   -2.9910088   -1.6912852  0.069048415   -2.9910088    1.2997236   544770 
 4017000    1.0014148   -2.9929263   -2.9929263   -1.6908302  0.061936245   -2.9929263     1.302096   544741 
 4018000     1.002223   -2.9942435   -2.9942435   -1.6910272   0.05522042   -2.9942435    1.3032163   544712 
 4019000    1.0021429   -2.9942849   -2.9942849   -1.6911058  0.056166324   -2.9942849    1.3031792   544684 
 4020000   0.99995868   -2.9922984   -2.9922984   -1.6918904  0.069095379   -2.9922984     1.300408   544655 
 4021000    1.0004869   -2.9936331   -2.9936331   -1.6924712  0.058137835   -2.9936331    1.3011619   544627 
 4022000   0.99896493   -2.9938025   -2.9938025   -1.6945509  0.062145124   -2.9938025    1.2992517   544598 
 4023000   0.99929407   -2.9932424   -2.9932424   -1.6934958  0.064855776   -2.9932424    1.2997466   544570 
 4024000   0.99877809    -2.992485    -2.992485   -1.6933403  0.072412967    -2.992485    1.2991446   544541 
 4025000   0.99944409   -2.9935276   -2.9935276   -1.6934474  0.055699861   -2.9935276    1.3000802   544512 
 4026000   0.99786726   -2.9916489   -2.9916489   -1.6935531  0.067038158   -2.9916489    1.2980958   544484 
 4027000    1.0004475   -2.9939278   -2.9939278   -1.6924061  0.067086818   -2.9939278    1.3015216   544455 
 4028000   0.99984776   -2.9931882   -2.9931882   -1.6923799  0.062183571   -2.9931882    1.3008083   544427 
 4029000    1.0012628   -2.9939715   -2.9939715   -1.6912528  0.063064785   -2.9939715    1.3027187   544398 
 4030000    1.0002582   -2.9932343   -2.9932343   -1.6917558  0.068265352   -2.9932343    1.3014786   544370 
 4031000    1.0008321   -2.9945508   -2.9945508   -1.6922562  0.056797495   -2.9945508    1.3022947   544341 
 4032000    1.0010808   -2.9955078   -2.9955078   -1.6928202  0.065754716   -2.9955078    1.3026876   544312 
 4033000   0.99941965   -2.9922878   -2.9922878   -1.6916948  0.068025923   -2.9922878     1.300593   544284 
 4034000    1.0017407   -2.9945192   -2.9945192   -1.6908363  0.064552879   -2.9945192     1.303683   544255 
 4035000    1.0006166   -2.9930279   -2.9930279   -1.6907409  0.069750825   -2.9930279     1.302287   544227 
 4036000    1.0015111   -2.9950437   -2.9950437    -1.691523   0.06071101   -2.9950437    1.3035206   544198 
 4037000    1.0000115   -2.9929009   -2.9929009   -1.6912651  0.063630575   -2.9929009    1.3016358   544170 
 4038000   0.99986278   -2.9929549   -2.9929549   -1.6914433  0.062116363   -2.9929549    1.3015116   544141 
 4039000   0.99899845   -2.9924353   -2.9924353   -1.6919795  0.066818543   -2.9924353    1.3004558   544112 
 4040000   0.99834446   -2.9934187   -2.9934187   -1.6937474  0.060026395   -2.9934187    1.2996713   544084 
 4041000   0.99976773   -2.9950478   -2.9950478   -1.6934542  0.059599045   -2.9950478    1.3015936   544055 
 4042000    1.0001611   -2.9948939   -2.9948939   -1.6927212   0.05821759   -2.9948939    1.3021727   544027 
 4043000   0.99974973   -2.9957108   -2.9957108   -1.6940043    0.0646085   -2.9957108    1.3017065   543998 
 4044000   0.99968934   -2.9957977   -2.9957977   -1.6941028  0.059021981   -2.9957977    1.3016949   543970 
 4045000   0.99811055   -2.9938048   -2.9938048   -1.6940964  0.061989715   -2.9938048    1.2997084   543941 
 4046000   0.99750207   -2.9938879   -2.9938879   -1.6949026  0.067118149   -2.9938879    1.2989853   543912 
 4047000   0.99713231   -2.9933981   -2.9933981   -1.6948275  0.067463568   -2.9933981    1.2985707   543884 
 4048000   0.99738756   -2.9928069   -2.9928069   -1.6938346  0.069275736   -2.9928069    1.2989723   543855 
 4049000   0.99757166   -2.9923933   -2.9923933   -1.6931144  0.065052876   -2.9923933     1.299279   543827 
 4050000   0.99858635   -2.9949112   -2.9949112   -1.6942413  0.050701796   -2.9949112    1.3006699   543798 
 4051000   0.99749252   -2.9942849   -2.9942849   -1.6949728  0.065664389   -2.9942849    1.2993121   543770 
 4052000   0.99780939   -2.9945656   -2.9945656   -1.6947714  0.060216535   -2.9945656    1.2997942   543741 
 4053000   0.99867071   -2.9949176   -2.9949176   -1.6939321  0.058225759   -2.9949176    1.3009856   543712 
 4054000   0.99794651   -2.9955779   -2.9955779   -1.6954688  0.057358342   -2.9955779    1.3001091   543684 
 4055000   0.99729459   -2.9946524   -2.9946524   -1.6953233  0.059849536   -2.9946524    1.2993291   543655 
 4056000   0.99701105   -2.9932326   -2.9932326   -1.6942061  0.067298489   -2.9932326    1.2990266   543627 
 4057000   0.99705143   -2.9938104   -2.9938104   -1.6946619  0.064299215   -2.9938104    1.2991485   543598 
 4058000   0.99673303   -2.9930951   -2.9930951   -1.6942946  0.061872757   -2.9930951    1.2988005   543570 
 4059000   0.99670212   -2.9929035   -2.9929035    -1.694074   0.06403789   -2.9929035    1.2988295   543541 
 4060000    0.9973264   -2.9935022   -2.9935022   -1.6937898  0.069861316   -2.9935022    1.2997124   543512 
 4061000   0.99711431   -2.9933701   -2.9933701   -1.6938672  0.056845702   -2.9933701    1.2995029   543484 
 4062000   0.99783211   -2.9960658   -2.9960658   -1.6955579  0.063559405   -2.9960658    1.3005078   543455 
 4063000   0.99659342   -2.9948023   -2.9948023    -1.695842  0.062782788   -2.9948023    1.2989603   543427 
 4064000   0.99638206   -2.9947726   -2.9947726   -1.6960184  0.062961642   -2.9947726    1.2987541   543398 
 4065000   0.99670518   -2.9945861   -2.9945861   -1.6953439  0.057633747   -2.9945861    1.2992423   543370 
 4066000   0.99678699   -2.9941889   -2.9941889   -1.6947706    0.0597404   -2.9941889    1.2994183   543341 
 4067000   0.99668988   -2.9938994   -2.9938994   -1.6945384  0.063663501   -2.9938994     1.299361   543312 
 4068000   0.99762301   -2.9951901   -2.9951901   -1.6945456  0.067674697   -2.9951901    1.3006445   543284 
 4069000   0.99639734   -2.9932529   -2.9932529    -1.694137  0.064218743   -2.9932529    1.2991159   543255 
 4070000   0.99726566   -2.9947549   -2.9947549   -1.6944398  0.061339506   -2.9947549    1.3003151   543227 
 4071000   0.99692517   -2.9945584   -2.9945584   -1.6946178  0.061598837   -2.9945584    1.2999405   543198 
 4072000   0.99636266   -2.9947206   -2.9947206   -1.6954466  0.060315368   -2.9947206     1.299274   543170 
 4073000   0.99604439   -2.9939925   -2.9939925   -1.6950641  0.056206576   -2.9939925    1.2989283   543141 
 4074000   0.99610453   -2.9935439   -2.9935439   -1.6944678  0.055415532   -2.9935439    1.2990761   543112 
 4075000   0.99575296   -2.9934421   -2.9934421   -1.6947576  0.068623105   -2.9934421    1.2986846   543084 
 4076000   0.99515701   -2.9929265   -2.9929265   -1.6949499  0.061757452   -2.9929265    1.2979766   543055 
 4077000   0.99486644   -2.9935388   -2.9935388   -1.6958743  0.056460297   -2.9935388    1.2976645   543027 
 4078000    0.9948289   -2.9940662   -2.9940662   -1.6963813  0.060991155   -2.9940662    1.2976849   542998 
 4079000   0.99507877   -2.9941638   -2.9941638   -1.6960861  0.059240797   -2.9941638    1.2980778   542970 
 4080000   0.99635522   -2.9957616   -2.9957616   -1.6959493  0.055929513   -2.9957616    1.2998123   542941 
 4081000    0.9948925   -2.9944367   -2.9944367   -1.6964632  0.067505015   -2.9944367    1.2979734   542912 
 4082000   0.99574868   -2.9955345   -2.9955345   -1.6963771  0.056353195   -2.9955345    1.2991574   542884 
 4083000   0.99486841   -2.9945214   -2.9945214   -1.6964432  0.060314859   -2.9945214    1.2980783   542855 
 4084000    0.9951192   -2.9948995   -2.9948995   -1.6964271  0.056609002   -2.9948995    1.2984725   542827 
 4085000   0.99613449   -2.9952429   -2.9952429   -1.6953761   0.06409199   -2.9952429    1.2998667   542798 
 4086000   0.99516897   -2.9942107   -2.9942107   -1.6955369  0.073513991   -2.9942107    1.2986738   542770 
 4087000   0.99440258    -2.993499    -2.993499    -1.695756  0.059231733    -2.993499     1.297743   542741 
 4088000   0.99395536   -2.9939646   -2.9939646   -1.6967359  0.054719596   -2.9939646    1.2972287   542712 
 4089000   0.99401485   -2.9936119   -2.9936119   -1.6962387  0.058074922   -2.9936119    1.2973732   542684 
 4090000   0.99371414   -2.9935902   -2.9935902   -1.6965401  0.056181662   -2.9935902    1.2970501   542655 
 4091000   0.99411366    -2.995024    -2.995024   -1.6973855  0.064548368    -2.995024    1.2976385   542627 
 4092000   0.99467621   -2.9959212   -2.9959212    -1.697479    0.0550594   -2.9959212    1.2984422   542598 
 4093000   0.99332869     -2.99374     -2.99374   -1.6969899  0.062916796     -2.99374    1.2967501   542570 
 4094000   0.99423069   -2.9950764   -2.9950764   -1.6970794  0.059540407   -2.9950764     1.297997   542541 
 4095000   0.99431899    -2.995514    -2.995514   -1.6973323  0.057935181    -2.995514    1.2981817   542512 
 4096000   0.99324932   -2.9935834   -2.9935834   -1.6967314  0.063856497   -2.9935834     1.296852   542484 
 4097000   0.99561884   -2.9962901   -2.9962901   -1.6962748  0.066912844   -2.9962901    1.3000153   542455 
 4098000   0.99518075   -2.9952352   -2.9952352   -1.6957248  0.061433371   -2.9952352    1.2995104   542427 
 4099000   0.99521452   -2.9959641   -2.9959641   -1.6963402  0.068708042   -2.9959641    1.2996239   542398 
 4100000   0.99635933   -2.9986558   -2.9986558   -1.6974697  0.058437533   -2.9986558    1.3011861   542370 
 4101000   0.99470524   -2.9969519   -2.9969519   -1.6978565  0.068146085   -2.9969519    1.2990954   542341 
 4102000   0.99412753   -2.9961816   -2.9961816   -1.6977713  0.064696793   -2.9961816    1.2984103   542312 
 4103000   0.99506303   -2.9983334   -2.9983334   -1.6986341  0.065773472   -2.9983334    1.2996993   542284 
 4104000   0.99525328   -2.9991483   -2.9991483    -1.699131    0.0574444   -2.9991483    1.3000173   542255 
 4105000   0.99341032   -2.9959211   -2.9959211   -1.6982441  0.058226043   -2.9959211     1.297677   542227 
 4106000   0.99369255   -2.9970404   -2.9970404   -1.6989253  0.057102753   -2.9970404    1.2981151   542198 
 4107000   0.99356114   -2.9968611   -2.9968611   -1.6988506  0.064750305   -2.9968611    1.2980105   542170 
 4108000   0.99413348   -2.9972759   -2.9972759   -1.6984482  0.057218404   -2.9972759    1.2988277   542141 
 4109000   0.99379265   -2.9964389   -2.9964389   -1.6979871  0.063377818   -2.9964389    1.2984518   542112 
 4110000   0.99274963   -2.9950627   -2.9950627   -1.6979066  0.067434462   -2.9950627    1.2971561   542084 
 4111000   0.99267348   -2.9958621   -2.9958621   -1.6987361  0.057837972   -2.9958621    1.2971259   542055 
 4112000   0.99252197   -2.9956164   -2.9956164   -1.6986215  0.053628392   -2.9956164     1.296995   542027 
 4113000   0.99255394   -2.9951835   -2.9951835   -1.6980773  0.061168277   -2.9951835    1.2971061   541998 
 4114000   0.99347443   -2.9962588   -2.9962588   -1.6978827  0.063508322   -2.9962588    1.2983761   541970 
 4115000   0.99290071   -2.9953219   -2.9953219   -1.6976261  0.052411404   -2.9953219    1.2976958   541941 
 4116000   0.99318113   -2.9958297   -2.9958297    -1.697698   0.06079346   -2.9958297    1.2981318   541912 
 4117000   0.99326461    -2.995697    -2.995697   -1.6973891  0.062769781    -2.995697    1.2983079   541884 
 4118000   0.99447881   -2.9979701   -2.9979701   -1.6980055  0.056950785   -2.9979701    1.2999646   541855 
 4119000   0.99448046   -2.9973879   -2.9973879   -1.6973539   0.05806996   -2.9973879    1.3000339   541827 
 4120000   0.99422176   -2.9965281   -2.9965281   -1.6967627  0.065417679   -2.9965281    1.2997653   541798 
 4121000   0.99295146    -2.995956    -2.995956   -1.6977843  0.062577685    -2.995956    1.2981717   541770 
 4122000   0.99285814   -2.9957401   -2.9957401   -1.6976208  0.071348411   -2.9957401    1.2981192   541741 
 4123000   0.99315937   -2.9962033   -2.9962033   -1.6976207  0.054693073   -2.9962033    1.2985826   541712 
 4124000   0.99307119   -2.9953454   -2.9953454    -1.696811  0.067883315   -2.9953454    1.2985344   541684 
 4125000   0.99154636   -2.9943266   -2.9943266   -1.6977167  0.060012284   -2.9943266    1.2966099   541655 
 4126000   0.99085048    -2.992623    -2.992623    -1.696856  0.060990801    -2.992623    1.2957669   541627 
 4127000   0.99096002    -2.995076    -2.995076   -1.6990964  0.052119555    -2.995076    1.2959796   541598 
 4128000      0.98949   -2.9932726   -2.9932726   -1.6991486  0.057661697   -2.9932726     1.294124   541570 
 4129000   0.99204729   -2.9972085   -2.9972085   -1.6996704  0.058868295   -2.9972085    1.2975381   541541 
 4130000   0.99081112   -2.9957431   -2.9957431   -1.6997524  0.059325681   -2.9957431    1.2959906   541512 
 4131000   0.98930749   -2.9930145   -2.9930145   -1.6989237  0.058815253   -2.9930145    1.2940908   541484 
 4132000   0.99042876   -2.9953043   -2.9953043   -1.6996774  0.061430916   -2.9953043    1.2956269   541455 
 4133000   0.99097759   -2.9957243   -2.9957243   -1.6993124  0.064074038   -2.9957243    1.2964119   541427 
 4134000   0.99165877   -2.9963165   -2.9963165    -1.698944  0.066077861   -2.9963165    1.2973725   541398 
 4135000   0.99056502   -2.9941665   -2.9941665   -1.6981579   0.06846956   -2.9941665    1.2960086   541370 
 4136000   0.99152329   -2.9954451   -2.9954451   -1.6981133  0.066173796   -2.9954451    1.2973319   541341 
 4137000   0.99106586   -2.9952858   -2.9952858    -1.698483  0.062729123   -2.9952858    1.2968028   541312 
 4138000   0.99219936    -2.996377    -2.996377   -1.6980238  0.059492827    -2.996377    1.2983531   541284 
 4139000   0.99165877   -2.9956943   -2.9956943    -1.697979  0.059583331   -2.9956943    1.2977153   541255 
 4140000   0.99154013   -2.9962113   -2.9962113   -1.6985842  0.063870497   -2.9962113    1.2976271   541227 
 4141000   0.99141844   -2.9962973   -2.9962973   -1.6987599  0.063681052   -2.9962973    1.2975374   541198 
 4142000   0.99085075   -2.9966398   -2.9966398   -1.6997783  0.054443073   -2.9966398    1.2968615   541170 
 4143000   0.99061946   -2.9960014   -2.9960014   -1.6993731  0.063432068   -2.9960014    1.2966283   541141 
 4144000   0.99007968   -2.9964716   -2.9964716   -1.7004803  0.061646189   -2.9964716    1.2959912   541112 
 4145000   0.99033968   -2.9962969   -2.9962969   -1.6998982  0.063819194   -2.9962969    1.2963986   541084 
 4146000   0.99214715   -2.9978723   -2.9978723    -1.699038  0.059434088   -2.9978723    1.2988343   541055 
 4147000   0.99068929   -2.9965541   -2.9965541   -1.6995612  0.062989597   -2.9965541    1.2969929   541027 
 4148000   0.99097087    -2.998231    -2.998231   -1.7007998  0.057869137    -2.998231    1.2974311   540998 
 4149000   0.99010118   -2.9966022   -2.9966022   -1.7002426  0.059050613   -2.9966022    1.2963596   540970 
 4150000   0.98911197   -2.9965394   -2.9965394   -1.7014056  0.057844705   -2.9965394    1.2951338   540941 
 4151000   0.98930542   -2.9973167   -2.9973167   -1.7018601   0.04894294   -2.9973167    1.2954566   540912 
 4152000   0.98802369   -2.9957825   -2.9957825   -1.7019374  0.071013478   -2.9957825    1.2938452   540884 
 4153000   0.98900571   -2.9975314   -2.9975314   -1.7023308  0.063956874   -2.9975314    1.2952006   540855 
 4154000   0.98917394   -2.9976781   -2.9976781   -1.7021902   0.05425821   -2.9976781     1.295488   540827 
 4155000   0.99153014    -2.999803    -2.999803   -1.7011596   0.04986365    -2.999803    1.2986434   540798 
 4156000   0.98884685    -2.997606    -2.997606   -1.7024099  0.061739874    -2.997606    1.2951961   540770 
 4157000   0.98957112   -2.9982975   -2.9982975   -1.7020832  0.064373781   -2.9982975    1.2962143   540741 
 4158000   0.99072977   -3.0000941   -3.0000941   -1.7022925  0.063320175   -3.0000941    1.2978015   540712 
 4159000   0.99016679   -2.9989549   -2.9989549   -1.7018237  0.063340998   -2.9989549    1.2971312   540684 
 4160000   0.98847135   -2.9985422   -2.9985422   -1.7035626  0.065633153   -2.9985422    1.2949796   540655 
 4161000   0.98894141   -2.9993734   -2.9993734   -1.7037108  0.056141653   -2.9993734    1.2956626   540627 
 4162000   0.98802005   -2.9976643   -2.9976643   -1.7031394  0.057776099   -2.9976643    1.2945249   540598 
 4163000   0.98706842   -2.9964087   -2.9964087   -1.7030637  0.060291455   -2.9964087     1.293345   540570 
 4164000   0.98927699   -2.9993132   -2.9993132   -1.7030048  0.056943957   -2.9993132    1.2963084   540541 
 4165000   0.98882723   -2.9980025   -2.9980025   -1.7022138  0.056951013   -2.9980025    1.2957886   540512 
 4166000   0.98961005   -2.9992512   -2.9992512   -1.7023696  0.061029852   -2.9992512    1.2968816   540484 
 4167000   0.98853015   -2.9975991   -2.9975991   -1.7020632  0.062761238   -2.9975991    1.2955359   540455 
 4168000   0.98861028   -2.9979636   -2.9979636   -1.7022555  0.065318745   -2.9979636    1.2957081   540427 
 4169000   0.99059566   -2.9994163   -2.9994163   -1.7010365  0.062915103   -2.9994163    1.2983799   540398 
 4170000   0.98957167   -2.9993656   -2.9993656   -1.7022607  0.064977724   -2.9993656    1.2971049   540370 
 4171000   0.98994823   -2.9983773   -2.9983773   -1.7007091  0.058069962   -2.9983773    1.2976681   540341 
 4172000   0.98972126   -2.9986707   -2.9986707   -1.7012304  0.059108036   -2.9986707    1.2974403   540312 
 4173000   0.98937052   -2.9974092   -2.9974092   -1.7003616  0.060147982   -2.9974092    1.2970477   540284 
 4174000   0.98800164   -2.9948969   -2.9948969   -1.6995743   0.06122919   -2.9948969    1.2953226   540255 
 4175000   0.98768922   -2.9953092   -2.9953092   -1.7003291  0.065766519   -2.9953092    1.2949801   540227 
 4176000   0.98809025   -2.9962938   -2.9962938   -1.7007183  0.059688855   -2.9962938    1.2955755   540198 
 4177000   0.98888286    -2.997873    -2.997873   -1.7011911  0.060988184    -2.997873     1.296682   540170 
 4178000   0.98578948   -2.9934262   -2.9934262   -1.7007311  0.063639877   -2.9934262    1.2926951   540141 
 4179000   0.98945108   -2.9991159   -2.9991159   -1.7015495  0.056786006   -2.9991159    1.2975664   540112 
 4180000   0.98707524   -2.9954888   -2.9954888    -1.700971   0.05854668   -2.9954888    1.2945178   540084 
 4181000   0.98730201   -2.9958864   -2.9958864   -1.7010017  0.060158971   -2.9958864    1.2948847   540055 
 4182000   0.98835163   -2.9967971   -2.9967971   -1.7004685  0.060610517   -2.9967971    1.2963286   540027 
 4183000   0.98811199    -2.996391    -2.996391   -1.7003071   0.05409619    -2.996391    1.2960839   539998 
 4184000   0.98900561   -2.9968755   -2.9968755   -1.6995522  0.053263546   -2.9968755    1.2973233   539970 
 4185000   0.98543129   -2.9934093   -2.9934093   -1.7007052  0.072966369   -2.9934093    1.2927041   539941 
 4186000   0.98829272   -2.9946764   -2.9946764    -1.698149  0.054576509   -2.9946764    1.2965274   539912 
 4187000   0.98772202   -2.9943278   -2.9943278   -1.6984819  0.068137595   -2.9943278    1.2958459   539884 
 4188000   0.98852102   -2.9947222   -2.9947222   -1.6977584  0.068621084   -2.9947222    1.2969638   539855 
 4189000   0.98922943   -2.9973359   -2.9973359   -1.6993754  0.060342887   -2.9973359    1.2979606   539827 
 4190000   0.98828599   -2.9965333   -2.9965333   -1.6997409  0.058661644   -2.9965333    1.2967924   539798 
 4191000   0.98704562   -2.9946866   -2.9946866   -1.6994546  0.065668434   -2.9946866     1.295232   539770 
 4192000   0.98769178   -2.9953932   -2.9953932   -1.6992436  0.056793471   -2.9953932    1.2961495   539741 
 4193000   0.98589705   -2.9929216   -2.9929216   -1.6990578  0.055692564   -2.9929216    1.2938638   539712 
 4194000   0.98702155   -2.9944508   -2.9944508    -1.699044  0.055154407   -2.9944508    1.2954068   539684 
 4195000   0.98593625   -2.9934398   -2.9934398   -1.6993879  0.057690255   -2.9934398    1.2940519   539655 
 4196000   0.98643576   -2.9934484   -2.9934484   -1.6986736  0.059512455   -2.9934484    1.2947747   539627 
 4197000   0.98697804   -2.9936372   -2.9936372    -1.698081  0.056211117   -2.9936372    1.2955562   539598 
 4198000   0.98790546   -2.9955428   -2.9955428   -1.6987019  0.054527322   -2.9955428    1.2968408   539570 
 4199000   0.98876699   -2.9971455   -2.9971455    -1.699104  0.054574521   -2.9971455    1.2980415   539541 
 4200000   0.98840763   -2.9964152   -2.9964152   -1.6987756  0.060256915   -2.9964152    1.2976395   539512 
 4201000   0.98653828   -2.9949652   -2.9949652   -1.6997126  0.058394999   -2.9949652    1.2952525   539484 
 4202000   0.98712903   -2.9951974   -2.9951974   -1.6990995  0.066262358   -2.9951974    1.2960978   539455 
 4203000   0.98738384   -2.9960381   -2.9960381   -1.6995384  0.063876889   -2.9960381    1.2964997   539427 
 4204000   0.98794443   -2.9963636   -2.9963636    -1.699058  0.067360333   -2.9963636    1.2973055   539398 
 4205000   0.98726243   -2.9955133   -2.9955133    -1.699036  0.053835788   -2.9955133    1.2964773   539370 
 4206000   0.98731284   -2.9963285   -2.9963285   -1.6997153  0.057356149   -2.9963285    1.2966132   539341 
 4207000   0.98755112   -2.9965822   -2.9965822   -1.6995864  0.068347282   -2.9965822    1.2969958   539312 
 4208000   0.98740706   -2.9969105   -2.9969105   -1.7000365  0.063702727   -2.9969105     1.296874   539284 
 4209000   0.98742518   -2.9984397   -2.9984397   -1.7014722  0.062941591   -2.9984397    1.2969675   539255 
 4210000   0.98655262   -2.9970223   -2.9970223   -1.7011336  0.054352757   -2.9970223    1.2958887   539227 
 4211000   0.98616985   -2.9966078   -2.9966078   -1.7011522  0.060328337   -2.9966078    1.2954556   539198 
 4212000   0.98689004   -2.9979916   -2.9979916   -1.7015227  0.057651692   -2.9979916     1.296469   539170 
 4213000   0.98442925   -2.9954375   -2.9954375   -1.7021317  0.062723272   -2.9954375    1.2933058   539141 
 4214000   0.98581547    -2.997026    -2.997026   -1.7018293  0.061013813    -2.997026    1.2951966   539112 
 4215000   0.98419982   -2.9951299   -2.9951299   -1.7019888  0.063469844   -2.9951299    1.2931411   539084 
 4216000    0.9860329   -2.9966267   -2.9966267   -1.7010074  0.063958486   -2.9966267    1.2956193   539055 
 4217000   0.98617033   -2.9978484   -2.9978484   -1.7019812  0.058760749   -2.9978484    1.2958672   539027 
 4218000   0.98554478    -2.997273    -2.997273   -1.7021581  0.056514592    -2.997273    1.2951149   538998 
 4219000   0.98334064   -2.9954457   -2.9954457   -1.7031601   0.06133013   -2.9954457    1.2922855   538970 
 4220000   0.98367361   -2.9956852   -2.9956852   -1.7028925  0.061260889   -2.9956852    1.2927927   538941 
 4221000   0.98341438   -2.9956409   -2.9956409   -1.7031194  0.062654732   -2.9956409    1.2925215   538912 
 4222000   0.98300073   -2.9950672   -2.9950672   -1.7030222   0.06277973   -2.9950672     1.292045   538884 
 4223000   0.98477042    -2.997445    -2.997445   -1.7030044  0.055254759    -2.997445    1.2944407   538855 
 4224000     0.984867   -2.9974846   -2.9974846   -1.7028497  0.062364496   -2.9974846    1.2946349   538827 
 4225000   0.98487517   -2.9970109   -2.9970109   -1.7022955  0.056840606   -2.9970109    1.2947153   538798 
 4226000   0.98384394   -2.9965568   -2.9965568   -1.7031299  0.053909326   -2.9965568    1.2934269   538770 
 4227000   0.98566273   -2.9984076   -2.9984076   -1.7025198  0.055302486   -2.9984076    1.2958878   538741 
 4228000   0.98358455   -2.9977566   -2.9977566   -1.7045315  0.063882927   -2.9977566    1.2932251   538712 
 4229000   0.98458512   -2.9984865   -2.9984865   -1.7038785  0.060435513   -2.9984865     1.294608   538684 
 4230000   0.98426763   -2.9980418   -2.9980418   -1.7037816  0.057378417   -2.9980418    1.2942602   538655 
 4231000   0.98462056   -2.9978807   -2.9978807   -1.7030891  0.053583617   -2.9978807    1.2947916   538627 
 4232000   0.98338268   -2.9969645   -2.9969645   -1.7037311  0.059397968   -2.9969645    1.2932334   538598 
 4233000   0.98400439    -2.998588    -2.998588   -1.7044697  0.053713624    -2.998588    1.2941182   538570 
 4234000   0.98311286   -2.9967265   -2.9967265   -1.7037111  0.063900898   -2.9967265    1.2930154   538541 
 4235000   0.98450679   -3.0008015   -3.0008015   -1.7058831  0.059310926   -3.0008015    1.2949184   538512 
 4236000   0.98408968   -3.0007178   -3.0007178   -1.7062807  0.052876544   -3.0007178    1.2944371   538484 
 4237000   0.98353582   -2.9993934   -2.9993934   -1.7056151  0.059434116   -2.9993934    1.2937783   538455 
 4238000   0.98266158   -2.9976059   -2.9976059   -1.7049105    0.0574044   -2.9976059    1.2926955   538427 
 4239000   0.98321079   -2.9981867   -2.9981867   -1.7046991  0.064419494   -2.9981867    1.2934876   538398 
 4240000   0.98480928   -2.9998806   -2.9998806   -1.7042226  0.051343029   -2.9998806    1.2956579   538370 
 4241000   0.98441612    -2.998833    -2.998833   -1.7036225  0.064466794    -2.998833    1.2952105   538341 
 4242000   0.98463586    -3.001434    -3.001434   -1.7058646  0.070439272    -3.001434    1.2955694   538312 
 4243000   0.98350427   -3.0000368   -3.0000368   -1.7058891  0.066253348   -3.0000368    1.2941477   538284 
 4244000   0.98334037   -2.9995054   -2.9995054   -1.7055036  0.060619646   -2.9995054    1.2940018   538255 
 4245000   0.98101305   -2.9970375   -2.9970375   -1.7060312  0.068532497   -2.9970375    1.2910064   538227 
 4246000   0.98202993   -2.9999608   -2.9999608   -1.7075466  0.058363218   -2.9999608    1.2924142   538198 
 4247000   0.98229521   -2.9999681   -2.9999681   -1.7071375  0.062504447   -2.9999681    1.2928306   538170 
 4248000   0.98188439   -2.9986899   -2.9986899   -1.7063304   0.05899325   -2.9986899    1.2923596   538141 
 4249000   0.98032395   -2.9980361   -2.9980361   -1.7076609  0.058062542   -2.9980361    1.2903752   538112 
 4250000   0.98249539   -3.0017578   -3.0017578   -1.7084571  0.054781136   -3.0017578    1.2933007   538084 
 4251000   0.98355056   -3.0028646   -3.0028646   -1.7081051  0.052264117   -3.0028646    1.2947595   538055 
 4252000   0.98148261   -3.0009353   -3.0009353   -1.7088308  0.059081679   -3.0009353    1.2921044   538027 
 4253000   0.98192857    -3.002632    -3.002632   -1.7098708  0.063119508    -3.002632    1.2927612   537998 
 4254000   0.98131209   -3.0017112   -3.0017112   -1.7096943  0.059898118   -3.0017112    1.2920168   537970 
 4255000   0.98005734   -3.0003242   -3.0003242   -1.7098898  0.064845878   -3.0003242    1.2904344   537941 
 4256000   0.98168606   -3.0022594   -3.0022594   -1.7096108  0.055056957   -3.0022594    1.2926486   537912 
 4257000   0.98123763   -3.0018768   -3.0018768   -1.7097514  0.061059863   -3.0018768    1.2921254   537884 
 4258000   0.98223871   -3.0027476   -3.0027476   -1.7092342  0.059157338   -3.0027476    1.2935134   537855 
 4259000    0.9820554   -3.0029644   -3.0029644   -1.7096251  0.050543944   -3.0029644    1.2933393   537827 
 4260000   0.98153721   -3.0021043   -3.0021043   -1.7093777  0.052553698   -3.0021043    1.2927265   537798 
 4261000   0.98393375   -3.0046067   -3.0046067   -1.7086563  0.054543186   -3.0046067    1.2959504   537770 
 4262000   0.98085529   -3.0014094   -3.0014094    -1.709444  0.054355597   -3.0014094    1.2919654   537741 
 4263000   0.98119223   -3.0029795   -3.0029795   -1.7105006  0.066552379   -3.0029795    1.2924789   537712 
 4264000   0.98049992   -3.0034011   -3.0034011   -1.7117669  0.059321135   -3.0034011    1.2916342   537684 
 4265000   0.98158388   -3.0051679   -3.0051679    -1.712036   0.05747223   -3.0051679    1.2931319   537655 
 4266000   0.98069243   -3.0028393   -3.0028393   -1.7108146  0.059295709   -3.0028393    1.2920247   537627 
 4267000   0.98040294   -3.0027562   -3.0027562   -1.7110432  0.057769097   -3.0027562     1.291713   537598 
 4268000   0.98084713   -3.0022282   -3.0022282   -1.7098626  0.058393401   -3.0022282    1.2923656   537570 
 4269000   0.98141197   -3.0028796   -3.0028796      -1.7097  0.057970304   -3.0028796    1.2931796   537541 
 4270000   0.97962988   -3.0011132   -3.0011132   -1.7102122  0.062894026   -3.0011132     1.290901   537512 
 4271000   0.97908552   -3.0007061   -3.0007061   -1.7104552   0.05391621   -3.0007061    1.2902509   537484 
 4272000   0.98039811   -3.0023591   -3.0023591   -1.7103087  0.061400512   -3.0023591    1.2920504   537455 
 4273000   0.98025222   -3.0019975   -3.0019975   -1.7100721  0.061740669   -3.0019975    1.2919254   537427 
 4274000   0.98037981    -3.002874    -3.002874   -1.7107107  0.058570207    -3.002874    1.2921633   537398 
 4275000   0.98099914   -3.0032787   -3.0032787   -1.7102317  0.059041886   -3.0032787    1.2930469   537370 
 4276000   0.97973924   -3.0019231   -3.0019231   -1.7104672   0.05856585   -3.0019231     1.291456   537341 
 4277000   0.97915913   -3.0006352   -3.0006352   -1.7098742  0.049377819   -3.0006352     1.290761   537312 
 4278000   0.97827197   -3.0002973   -3.0002973   -1.7106386   0.05152052   -3.0002973    1.2896587   537284 
 4279000   0.97971252    -3.002136    -3.002136   -1.7105085  0.048446165    -3.002136    1.2916275   537255 
 4280000   0.97703752   -3.0000293   -3.0000293   -1.7118613  0.050602827   -3.0000293     1.288168   537227 
 4281000   0.97827982   -3.0015055   -3.0015055     -1.71163  0.062649054   -3.0015055    1.2898755   537198 
 4282000   0.97856165   -3.0008342   -3.0008342   -1.7105199  0.051438145   -3.0008342    1.2903143   537170 
 4283000   0.97864217   -3.0013393   -3.0013393   -1.7108492  0.062960649   -3.0013393    1.2904902   537141 
 4284000   0.97861901   -3.0008294   -3.0008294   -1.7103001  0.055997173   -3.0008294    1.2905293   537112 
 4285000   0.97808054   -3.0021578   -3.0021578   -1.7122713  0.056511752   -3.0021578    1.2898865   537084 
 4286000   0.97786877   -3.0010546   -3.0010546   -1.7113778  0.052671066   -3.0010546    1.2896768   537055 
 4287000   0.97879775   -3.0031608   -3.0031608   -1.7121914  0.058945796   -3.0031608    1.2909693   537027 
 4288000   0.97818188   -3.0020625   -3.0020625   -1.7118357  0.056959899   -3.0020625    1.2902267   536998 
 4289000    0.9779575   -3.0032928   -3.0032928   -1.7132948  0.053267631   -3.0032928     1.289998   536970 
 4290000   0.97830127   -3.0028009   -3.0028009   -1.7122798  0.053299161   -3.0028009    1.2905212   536941 
 4291000   0.97719867    -3.001576    -3.001576   -1.7124397  0.061362753    -3.001576    1.2891363   536912 
 4292000   0.97830598   -3.0027322   -3.0027322   -1.7120678  0.059017892   -3.0027322    1.2906644   536884 
 4293000   0.97647951   -3.0006159   -3.0006159   -1.7122915  0.062212308   -3.0006159    1.2883243   536855 
 4294000   0.97665164   -3.0011381   -3.0011381   -1.7125194  0.056296907   -3.0011381    1.2886187   536827 
 4295000   0.97725537   -3.0024801   -3.0024801   -1.7129952    0.0550751   -3.0024801    1.2894849   536798 
 4296000   0.97739887   -3.0037128   -3.0037128   -1.7139713  0.044705091   -3.0037128    1.2897415   536770 
 4297000   0.97590646    -3.002355    -3.002355   -1.7145133  0.049217584    -3.002355    1.2878418   536741 
 4298000   0.97690489   -3.0029572   -3.0029572   -1.7137282  0.062541725   -3.0029572     1.289229   536712 
 4299000   0.97879401   -3.0045635   -3.0045635   -1.7127741  0.063059065   -3.0045635    1.2917895   536684 
 4300000   0.97799856   -3.0043432   -3.0043432   -1.7135338  0.064643568   -3.0043432    1.2908094   536655 
 4301000   0.97710265   -3.0054198   -3.0054198   -1.7157256   0.06494163   -3.0054198    1.2896942   536627 
 4302000   0.97960976   -3.0078166   -3.0078166   -1.7147433  0.060407031   -3.0078166    1.2930733   536598 
 4303000   0.97932386   -3.0074422   -3.0074422   -1.7146789  0.060888922   -3.0074422    1.2927633   536570 
 4304000    0.9784321   -3.0062817   -3.0062817   -1.7146257  0.064415728   -3.0062817     1.291656   536541 
 4305000   0.97838521   -3.0063505   -3.0063505   -1.7146866  0.062989497   -3.0063505    1.2916639   536512 
 4306000    0.9783241   -3.0069936   -3.0069936    -1.715343  0.061039387   -3.0069936    1.2916506   536484 
 4307000    0.9760627   -3.0030819   -3.0030819   -1.7143473  0.058349207   -3.0030819    1.2887346   536455 
 4308000   0.97620148   -3.0041823   -3.0041823   -1.7151971  0.055748573   -3.0041823    1.2889852   536427 
 4309000   0.97720487   -3.0056328   -3.0056328    -1.715253  0.057803481   -3.0056328    1.2903798   536398 
 4310000   0.97729656   -3.0065435   -3.0065435   -1.7159753  0.049950266   -3.0065435    1.2905682   536370 
 4311000   0.97562261   -3.0042372   -3.0042372   -1.7158099  0.057745945   -3.0042372    1.2884274   536341 
 4312000   0.97687253    -3.007101    -3.007101   -1.7169532  0.061217875    -3.007101    1.2901478   536312 
 4313000   0.97746304   -3.0066735   -3.0066735   -1.7156784  0.058833338   -3.0066735    1.2909951   536284 
 4314000   0.97675527   -3.0055737   -3.0055737   -1.7154437  0.058483343   -3.0055737      1.29013   536255 
 4315000   0.97785467   -3.0063274   -3.0063274   -1.7146778   0.06150592   -3.0063274    1.2916496   536227 
 4316000   0.97913994     -3.00713     -3.00713   -1.7137127  0.057696953     -3.00713    1.2934173   536198 
 4317000   0.97641274   -3.0030382   -3.0030382   -1.7131561  0.066353461   -3.0030382    1.2898821   536170 
 4318000   0.97788547   -3.0061548   -3.0061548   -1.7142573  0.059020344   -3.0061548    1.2918975   536141 
 4319000   0.97794858   -3.0051953   -3.0051953   -1.7131445  0.059657633   -3.0051953    1.2920508   536112 
 4320000    0.9777865   -3.0055411   -3.0055411    -1.713637  0.053596079   -3.0055411    1.2919041   536084 
 4321000    0.9775423   -3.0046805   -3.0046805   -1.7130292  0.066093463   -3.0046805    1.2916513   536055 
 4322000   0.97705606   -3.0044079   -3.0044079   -1.7133316  0.061127862   -3.0044079    1.2910763   536027 
 4323000   0.97653056   -3.0044672   -3.0044672   -1.7140155  0.049512782   -3.0044672    1.2904517   535998 
 4324000   0.97615189   -3.0042756   -3.0042756   -1.7142569  0.056156608   -3.0042756    1.2900187   535970 
 4325000   0.97546116   -3.0032277   -3.0032277   -1.7140521  0.056371204   -3.0032277    1.2891756   535941 
 4326000   0.97470223   -3.0030534   -3.0030534    -1.714811  0.060627672   -3.0030534    1.2882423   535912 
 4327000   0.97637295   -3.0036777   -3.0036777   -1.7131598  0.053087834   -3.0036777    1.2905179   535884 
 4328000   0.97666318   -3.0028559   -3.0028559   -1.7118845  0.051394666   -3.0028559    1.2909714   535855 
 4329000   0.97684595   -3.0022664   -3.0022664    -1.710986  0.062776894   -3.0022664    1.2912804   535827 
 4330000    0.9770206   -3.0045115   -3.0045115   -1.7129303     0.054793   -3.0045115    1.2915812   535798 
 4331000   0.97569248   -3.0022431   -3.0022431   -1.7123502  0.058811613   -3.0022431    1.2898929   535770 
 4332000   0.97630772   -3.0034643   -3.0034643   -1.7126882  0.057933847   -3.0034643    1.2907761   535741 
 4333000   0.97653635   -3.0029486   -3.0029486   -1.7118003  0.050923204   -3.0029486    1.2911483   535712 
 4334000   0.97613325    -3.001429    -3.001429   -1.7107462  0.060604359    -3.001429    1.2906828   535684 
 4335000   0.97501406   -3.0009358   -3.0009358    -1.711663  0.056971483   -3.0009358    1.2892727   535655 
 4336000   0.97377058   -3.0018097   -3.0018097   -1.7141139  0.053648575   -3.0018097    1.2876958   535627 
 4337000   0.97466875   -3.0028451   -3.0028451   -1.7138918  0.054832309   -3.0028451    1.2889533   535598 
 4338000   0.97585943   -3.0034228   -3.0034228   -1.7128274  0.052964451   -3.0034228    1.2905954   535570 
 4339000   0.97494505   -3.0012672   -3.0012672   -1.7118113  0.052364461   -3.0012672    1.2894559   535541 
 4340000   0.97332854   -3.0001637   -3.0001637   -1.7127761  0.054397265   -3.0001637    1.2873876   535512 
 4341000   0.97400132    -3.001472    -3.001472   -1.7131272  0.063090005    -3.001472    1.2883449   535484 
 4342000   0.97466008   -3.0021381   -3.0021381    -1.712852  0.055140398   -3.0021381     1.289286   535455 
 4343000   0.97451265   -3.0022588   -3.0022588   -1.7131004   0.05537019   -3.0022588    1.2891584   535427 
 4344000   0.97591382   -3.0037741   -3.0037741   -1.7126922  0.049130043   -3.0037741    1.2910819   535398 
 4345000   0.97502557   -3.0031519   -3.0031519   -1.7131776  0.052802721   -3.0031519    1.2899743   535370 
 4346000   0.97426853   -3.0014088   -3.0014088   -1.7123662  0.055030046   -3.0014088    1.2890425   535341 
 4347000   0.97436026   -3.0016254   -3.0016254   -1.7123916  0.057571339   -3.0016254    1.2892337   535312 
 4348000   0.97438366    -3.003107    -3.003107   -1.7137749  0.056084267    -3.003107    1.2893321   535284 
 4349000   0.97494847   -3.0037585   -3.0037585   -1.7136091  0.055245696   -3.0037585    1.2901494   535255 
 4350000   0.97530557   -3.0040906   -3.0040906   -1.7134012   0.06047289   -3.0040906    1.2906895   535227 
 4351000   0.97641054   -3.0051491   -3.0051491   -1.7129273  0.054710316   -3.0051491    1.2922218   535198 
 4352000   0.97418779   -3.0027491   -3.0027491   -1.7134016  0.059789308   -3.0027491    1.2893476   535170 
 4353000   0.97417482   -3.0034468   -3.0034468   -1.7140465  0.050436844   -3.0034468    1.2894003   535141 
 4354000   0.97433202   -3.0037196   -3.0037196   -1.7140414  0.051651205   -3.0037196    1.2896782   535112 
 4355000   0.97500162   -3.0040691   -3.0040691    -1.713437  0.063037989   -3.0040691    1.2906321   535084 
 4356000   0.97523632   -3.0037844   -3.0037844   -1.7127716  0.057284564   -3.0037844    1.2910127   535055 
 4357000   0.97493702   -3.0046425   -3.0046425   -1.7139585  0.048659197   -3.0046425     1.290684   535027 
 4358000   0.97410844   -3.0030561   -3.0030561   -1.7133991  0.054156769   -3.0030561     1.289657   534998 
 4359000    0.9752904   -3.0047784   -3.0047784    -1.713489  0.049291187   -3.0047784    1.2912894   534970 
 4360000   0.97489969   -3.0032125   -3.0032125   -1.7123704  0.057158374   -3.0032125    1.2908421   534941 
 4361000   0.97422147   -3.0029237   -3.0029237   -1.7129096  0.057739784   -3.0029237     1.290014   534912 
 4362000   0.97314871   -3.0031934   -3.0031934   -1.7145324  0.051548424   -3.0031934     1.288661   534884 
 4363000   0.97410329   -3.0036945   -3.0036945   -1.7136994  0.060632906   -3.0036945     1.289995   534855 
 4364000   0.97384199   -3.0030617   -3.0030617   -1.7133453  0.060024325   -3.0030617    1.2897165   534827 
 4365000   0.97268653   -3.0029423   -3.0029423   -1.7146862  0.056818971   -3.0029423    1.2882561   534798 
 4366000   0.97382592   -3.0038646   -3.0038646   -1.7140319  0.063561929   -3.0038646    1.2898327   534770 
 4367000    0.9724961   -3.0032803   -3.0032803   -1.7151391  0.056675593   -3.0032803    1.2881412   534741 
 4368000   0.97231164   -3.0036861   -3.0036861   -1.7157194  0.051864318   -3.0036861    1.2879667   534712 
 4369000   0.97171995    -3.003146    -3.003146   -1.7158956  0.055580174    -3.003146    1.2872503   534684 
 4370000   0.97064872   -3.0022988   -3.0022988   -1.7163978  0.049706155   -3.0022988     1.285901   534655 
 4371000   0.97058521   -3.0025771   -3.0025771   -1.7166929  0.058869565   -3.0025771    1.2858842   534627 
 4372000   0.97225381   -3.0052756   -3.0052756   -1.7171109  0.053136885   -3.0052756    1.2881647   534598 
 4373000   0.97109556   -3.0032017   -3.0032017   -1.7165042  0.046400497   -3.0032017    1.2866975   534570 
 4374000   0.97069158     -3.00282     -3.00282   -1.7165879  0.046810615     -3.00282     1.286232   534541 
 4375000   0.97009163    -3.002737    -3.002737   -1.7172302  0.052512124    -3.002737    1.2855068   534512 
 4376000   0.97130572   -3.0048626   -3.0048626   -1.7176795  0.043927317   -3.0048626    1.2871831   534484 
 4377000   0.97221901   -3.0064425   -3.0064425   -1.7179792  0.049761312   -3.0064425    1.2884633   534455 
 4378000   0.97146466   -3.0058103   -3.0058103   -1.7182793   0.05185174   -3.0058103     1.287531   534427 
 4379000   0.97227836   -3.0078371   -3.0078371   -1.7191578  0.051838016   -3.0078371    1.2886794   534398 
 4380000   0.97137689   -3.0061372   -3.0061372   -1.7185852  0.055282059   -3.0061372     1.287552   534370 
 4381000   0.97382616   -3.0074927   -3.0074927   -1.7166241  0.060473054   -3.0074927    1.2908686   534341 
 4382000   0.97317172   -3.0069106   -3.0069106   -1.7168395  0.056247711   -3.0069106    1.2900711   534312 
 4383000   0.97366707   -3.0070052   -3.0070052   -1.7162098  0.054853943   -3.0070052    1.2907954   534284 
 4384000   0.97208488   -3.0062852   -3.0062852   -1.7175174  0.054435779   -3.0062852    1.2887678   534255 
 4385000   0.97270882   -3.0068562   -3.0068562   -1.7171936  0.050474414   -3.0068562    1.2896626   534227 
 4386000   0.97366607   -3.0093231   -3.0093231   -1.7183213  0.051444332   -3.0093231    1.2910018   534198 
 4387000   0.97267713   -3.0082507   -3.0082507   -1.7184925  0.054004725   -3.0082507    1.2897582   534170 
 4388000   0.97228439   -3.0085052   -3.0085052   -1.7191978  0.053618651   -3.0085052    1.2893074   534141 
 4389000   0.97072006   -3.0080213   -3.0080213   -1.7207184  0.062577076   -3.0080213    1.2873029   534112 
 4390000   0.97083924   -3.0088618   -3.0088618   -1.7213333  0.047422421   -3.0088618    1.2875285   534084 
 4391000   0.97157737   -3.0102698   -3.0102698   -1.7216924  0.062483256   -3.0102698    1.2885773   534055 
 4392000   0.97163696   -3.0098825   -3.0098825   -1.7211586  0.052827876   -3.0098825    1.2887239   534027 
 4393000   0.97010953   -3.0079897   -3.0079897   -1.7212217  0.061944085   -3.0079897    1.2867679   533998 
 4394000   0.97153194   -3.0111239   -3.0111239   -1.7224017  0.059096071   -3.0111239    1.2887222   533970 
 4395000   0.97263273   -3.0119904   -3.0119904   -1.7217379  0.054725804   -3.0119904    1.2902524   533941 
 4396000   0.97116072   -3.0100674   -3.0100674   -1.7216977   0.05446235   -3.0100674    1.2883697   533912 
 4397000   0.97019774   -3.0102103   -3.0102103   -1.7230506  0.055363505   -3.0102103    1.2871597   533884 
 4398000    0.9707984   -3.0102349   -3.0102349   -1.7222083  0.059528524   -3.0102349    1.2880266   533855 
 4399000   0.97100095   -3.0118148   -3.0118148   -1.7234519  0.057208665   -3.0118148    1.2883629   533827 
 4400000   0.97275827   -3.0122879   -3.0122879   -1.7215233  0.057957972   -3.0122879    1.2907647   533798 
 4401000   0.96908677   -3.0079945   -3.0079945   -1.7220341  0.057429933   -3.0079945    1.2859604   533770 
 4402000   0.97074128    -3.011337    -3.011337   -1.7231111  0.055011815    -3.011337    1.2882259   533741 
 4403000   0.97121736   -3.0112436   -3.0112436   -1.7223159  0.055949615   -3.0112436    1.2889277   533712 
 4404000   0.97013311   -3.0102838   -3.0102838   -1.7227275  0.052768183   -3.0102838    1.2875563   533684 
 4405000    0.9715179   -3.0108453   -3.0108453   -1.7213811  0.049796842   -3.0108453    1.2894642   533655 
 4406000   0.97111962   -3.0114313   -3.0114313    -1.722428  0.057892866   -3.0114313    1.2890033   533627 
 4407000   0.96959097   -3.0090055   -3.0090055   -1.7219614  0.053479293   -3.0090055    1.2870442   533598 
 4408000   0.96946456   -3.0104487   -3.0104487   -1.7235048  0.059441998   -3.0104487    1.2869439   533570 
 4409000   0.96944446    -3.010433    -3.010433   -1.7234459  0.057230064    -3.010433    1.2869872   533541 
 4410000   0.97009886   -3.0113459   -3.0113459     -1.72342  0.050079236   -3.0113459    1.2879259   533512 
 4411000   0.96982071   -3.0112595   -3.0112595   -1.7236353  0.049142284   -3.0112595    1.2876242   533484 
 4412000   0.96976894   -3.0110088   -3.0110088   -1.7233833    0.0513565   -3.0110088    1.2876255   533455 
 4413000   0.97092872   -3.0119099   -3.0119099   -1.7226768  0.053535102   -3.0119099    1.2892331   533427 
 4414000   0.96924265   -3.0095398   -3.0095398   -1.7224756  0.053927538   -3.0095398    1.2870642   533398 
 4415000   0.97004812   -3.0102098   -3.0102098   -1.7220083  0.055001041   -3.0102098    1.2882014   533370 
 4416000   0.96979423     -3.00954     -3.00954   -1.7216057  0.063290532     -3.00954    1.2879343   533341 
 4417000   0.97053893   -3.0106977   -3.0106977   -1.7217043  0.059639192   -3.0106977    1.2889934   533312 
 4418000   0.96918072   -3.0098587   -3.0098587   -1.7226016   0.05376179   -3.0098587    1.2872571   533284 
 4419000   0.96884233    -3.009043    -3.009043   -1.7221654  0.058674405    -3.009043    1.2868776   533255 
 4420000   0.96773805   -3.0079622   -3.0079622   -1.7224839  0.054363502   -3.0079622    1.2854783   533227 
 4421000   0.96889972   -3.0100601   -3.0100601   -1.7229686  0.048962622   -3.0100601    1.2870914   533198 
 4422000   0.96928955   -3.0106934   -3.0106934   -1.7230165  0.054180723   -3.0106934    1.2876769   533170 
 4423000   0.96879824   -3.0095146   -3.0095146   -1.7224204  0.062272083   -3.0095146    1.2870942   533141 
 4424000   0.96763783   -3.0095969   -3.0095969   -1.7239744  0.051183226   -3.0095969    1.2856225   533112 
 4425000   0.96825277   -3.0098473   -3.0098473   -1.7233402  0.055242441   -3.0098473    1.2865071   533084 
 4426000   0.96928722   -3.0100453   -3.0100453   -1.7220937  0.048623558   -3.0100453    1.2879516   533055 
 4427000   0.96902278   -3.0094787   -3.0094787   -1.7218108  0.056800785   -3.0094787    1.2876679   533027 
 4428000   0.96757923   -3.0084739   -3.0084739   -1.7226543  0.060527717   -3.0084739    1.2858196   532998 
 4429000   0.96803602   -3.0074932   -3.0074932    -1.720999  0.059447623   -3.0074932    1.2864942   532970 
 4430000   0.96856177   -3.0088434   -3.0088434   -1.7215805  0.049680094   -3.0088434     1.287263   532941 
 4431000   0.96788351   -3.0080432   -3.0080432   -1.7216117  0.057660913   -3.0080432    1.2864315   532912 
 4432000   0.96755543   -3.0082134   -3.0082134   -1.7221504  0.059938473   -3.0082134     1.286063   532884 
 4433000   0.96782916   -3.0089602   -3.0089602   -1.7224633  0.063202873   -3.0089602    1.2864969   532855 
 4434000   0.96888989   -3.0084864   -3.0084864   -1.7205119  0.052079177   -3.0084864    1.2879745   532827 
 4435000   0.96939642   -3.0097535   -3.0097535   -1.7210355  0.065840536   -3.0097535     1.288718   532798 
 4436000   0.96900956   -3.0089163   -3.0089163   -1.7206449  0.054123096   -3.0089163    1.2882714   532770 
 4437000   0.96884346   -3.0084168   -3.0084168   -1.7202961  0.055360623   -3.0084168    1.2881207   532741 
 4438000   0.96967177   -3.0094333   -3.0094333   -1.7201411  0.048526944   -3.0094333    1.2892922   532712 
 4439000   0.96870025   -3.0101702   -3.0101702    -1.722102  0.055100618   -3.0101702    1.2880681   532684 
 4440000   0.96778118   -3.0100011   -3.0100011   -1.7230849  0.055895086   -3.0100011    1.2869161   532655 
 4441000   0.96781732   -3.0096846   -3.0096846   -1.7226528  0.049899501   -3.0096846    1.2870318   532627 
 4442000   0.96724627   -3.0090389   -3.0090389   -1.7226964  0.059436382   -3.0090389    1.2863425   532598 
 4443000   0.96878388   -3.0105051   -3.0105051     -1.72205  0.052770614   -3.0105051    1.2884551   532570 
 4444000   0.96716761   -3.0087133   -3.0087133   -1.7223377  0.053900195   -3.0087133    1.2863755   532541 
 4445000   0.96763136    -3.010902    -3.010902   -1.7238396  0.057743122    -3.010902    1.2870624   532512 
 4446000   0.96611136   -3.0081087   -3.0081087   -1.7230004  0.048983186   -3.0081087    1.2851082   532484 
 4447000   0.96552003   -3.0079093   -3.0079093   -1.7235177  0.052109418   -3.0079093    1.2843916   532455 
 4448000   0.96610102   -3.0086511   -3.0086511    -1.723419  0.046225264   -3.0086511    1.2852321   532427 
 4449000   0.96624903   -3.0087516   -3.0087516   -1.7232526  0.050069149   -3.0087516     1.285499   532398 
 4450000   0.96602319   -3.0087015   -3.0087015   -1.7234354  0.050070092   -3.0087015    1.2852661   532370 
 4451000   0.96719277   -3.0092825   -3.0092825   -1.7223902  0.057829459   -3.0092825    1.2868923   532341 
 4452000   0.96673964   -3.0093599   -3.0093599   -1.7230004   0.05413733   -3.0093599    1.2863595   532312 
 4453000   0.96681904   -3.0095994   -3.0095994   -1.7230665  0.058924384   -3.0095994    1.2865328   532284 
 4454000   0.96555192   -3.0079134   -3.0079134   -1.7229968  0.052395688   -3.0079134    1.2849167   532255 
 4455000   0.96614376   -3.0091793   -3.0091793   -1.7234074  0.054206983   -3.0091793    1.2857719   532227 
 4456000   0.96582939   -3.0085571   -3.0085571   -1.7231336  0.052207034   -3.0085571    1.2854236   532198 
 4457000   0.96561156   -3.0074467   -3.0074467   -1.7222455  0.057805898   -3.0074467    1.2852013   532170 
 4458000   0.96628439    -3.008916    -3.008916   -1.7227491  0.055067262    -3.008916    1.2861669   532141 
 4459000   0.96681372   -3.0092565   -3.0092565   -1.7223149  0.060669958   -3.0092565    1.2869416   532112 
 4460000   0.96678044   -3.0091267   -3.0091267   -1.7221617  0.056342319   -3.0091267     1.286965   532084 
 4461000   0.96543486   -3.0089383   -3.0089383   -1.7236945  0.059003648   -3.0089383    1.2852438   532055 
 4462000   0.96604347   -3.0099045   -3.0099045   -1.7237828  0.047831044   -3.0099045    1.2861217   532027 
 4463000   0.96546562   -3.0095942   -3.0095942   -1.7241717  0.048303737   -3.0095942    1.2854225   531998 
 4464000   0.96542531   -3.0093748   -3.0093748   -1.7239383  0.059004358   -3.0093748    1.2854365   531970 
 4465000    0.9653193   -3.0094461   -3.0094461   -1.7240807  0.053606723   -3.0094461    1.2853654   531941 
 4466000    0.9653385   -3.0086316   -3.0086316   -1.7231705  0.056651166   -3.0086316     1.285461   531912 
 4467000   0.96606747   -3.0092678   -3.0092678   -1.7227683  0.046515725   -3.0092678    1.2864995   531884 
 4468000   0.96401538   -3.0063547   -3.0063547   -1.7225179  0.054959314   -3.0063547    1.2838367   531855 
 4469000   0.96412166   -3.0079984   -3.0079984   -1.7239526  0.060828841   -3.0079984    1.2840459   531827 
 4470000   0.96206088   -3.0068339   -3.0068339   -1.7254627  0.054389914   -3.0068339    1.2813711   531798 
 4471000   0.96477347   -3.0097417   -3.0097417     -1.72469   0.04622145   -3.0097417    1.2850517   531770 
 4472000   0.96415642   -3.0097114   -3.0097114   -1.7254115  0.052962633   -3.0097114    1.2842998   531741 
 4473000   0.96522117   -3.0110377   -3.0110377   -1.7252495  0.047535485   -3.0110377    1.2857883   531712 
 4474000   0.96429618   -3.0094902   -3.0094902   -1.7248665  0.047560166   -3.0094902    1.2846237   531684 
 4475000   0.96533088   -3.0100864   -3.0100864   -1.7240141  0.050240123   -3.0100864    1.2860723   531655 
 4476000   0.96549919   -3.0105127   -3.0105127   -1.7241484   0.05553775   -3.0105127    1.2863643   531627 
 4477000   0.96378037   -3.0104536   -3.0104536   -1.7263094  0.059031097   -3.0104536    1.2841443   531598 
 4478000   0.96408022   -3.0101294   -3.0101294   -1.7255179  0.055576635   -3.0101294    1.2846115   531570 
 4479000   0.96582678   -3.0119148   -3.0119148   -1.7249059  0.055345257   -3.0119148    1.2870089   531541 
 4480000   0.96672796   -3.0128228   -3.0128228   -1.7245427  0.061697637   -3.0128228    1.2882801   531512 
 4481000   0.96555066   -3.0131824   -3.0131824   -1.7264034  0.060908671   -3.0131824     1.286779   531484 
 4482000   0.96524476   -3.0128353   -3.0128353   -1.7263938  0.054289952   -3.0128353    1.2864415   531455 
 4483000   0.96561735   -3.0132272   -3.0132272   -1.7262214  0.054233908   -3.0132272    1.2870059   531427 
 4484000   0.96566323   -3.0125021   -3.0125021   -1.7253648  0.056986996   -3.0125021    1.2871373   531398 
 4485000   0.96521868   -3.0126927   -3.0126927   -1.7260802  0.060194265   -3.0126927    1.2866125   531370 
 4486000   0.96623037      -3.0135      -3.0135   -1.7254686   0.05611443      -3.0135    1.2880314   531341 
 4487000   0.96368504    -3.011481    -3.011481   -1.7267725   0.05647267    -3.011481    1.2847084   531312 
 4488000   0.96388927   -3.0109686   -3.0109686   -1.7259202  0.058558635   -3.0109686    1.2850484   531284 
 4489000   0.96460855   -3.0121062   -3.0121062   -1.7260286   0.04985439   -3.0121062    1.2860776   531255 
 4490000   0.96364809     -3.01059     -3.01059   -1.7257253  0.057383757     -3.01059    1.2848647   531227 
 4491000    0.9634189   -3.0095664   -3.0095664   -1.7249371  0.055676854   -3.0095664    1.2846293   531198 
 4492000   0.96446552   -3.0128113   -3.0128113   -1.7267187  0.048736751   -3.0128113    1.2860926   531170 
 4493000   0.96558022   -3.0138807   -3.0138807   -1.7262314  0.056994135   -3.0138807    1.2876494   531141 
 4494000   0.96418162   -3.0115013   -3.0115013   -1.7256468  0.058638586   -3.0115013    1.2858545   531112 
 4495000   0.96528556   -3.0123581   -3.0123581   -1.7249635   0.04904767   -3.0123581    1.2873946   531084 
 4496000    0.9637139   -3.0102231   -3.0102231   -1.7248544  0.055245361   -3.0102231    1.2853687   531055 
 4497000   0.96376025   -3.0106098   -3.0106098   -1.7251115  0.054582264   -3.0106098    1.2854982   531027 
 4498000   0.96366383   -3.0104951   -3.0104951   -1.7250553   0.05481828   -3.0104951    1.2854398   530998 
 4499000   0.96529635   -3.0119352   -3.0119352   -1.7242498  0.056036832   -3.0119352    1.2876854   530970 
 4500000   0.96445469   -3.0105469   -3.0105469   -1.7239141  0.054235964   -3.0105469    1.2866329   530941 
 4501000   0.96488092   -3.0106982   -3.0106982   -1.7234264  0.059454294   -3.0106982    1.2872718   530912 
 4502000   0.96377377   -3.0088823   -3.0088823   -1.7230198  0.054555742   -3.0088823    1.2858626   530884 
 4503000    0.9644019   -3.0103314   -3.0103314   -1.7235605  0.056738053   -3.0103314    1.2867709   530855 
 4504000    0.9626263   -3.0089245   -3.0089245    -1.724455   0.05444371   -3.0089245    1.2844695   530827 
 4505000   0.96344905   -3.0101557   -3.0101557   -1.7245181  0.059295669   -3.0101557    1.2856376   530798 
 4506000   0.96284648   -3.0090502   -3.0090502   -1.7241489  0.054228346   -3.0090502    1.2849013   530770 
 4507000   0.96197716   -3.0076138   -3.0076138   -1.7238025  0.064717878   -3.0076138    1.2838113   530741 
 4508000   0.96150913    -3.007663    -3.007663   -1.7244062  0.054465099    -3.007663    1.2832568   530712 
 4509000   0.96234337   -3.0081743   -3.0081743   -1.7237363  0.049470314   -3.0081743     1.284438   530684 
 4510000   0.96214145   -3.0089316   -3.0089316   -1.7246929   0.05152883   -3.0089316    1.2842387   530655 
 4511000   0.96259397   -3.0082803   -3.0082803   -1.7233698  0.044149907   -3.0082803    1.2849105   530627 
 4512000   0.96150355   -3.0078785   -3.0078785   -1.7243534  0.044260696   -3.0078785    1.2835251   530598 
 4513000   0.96158833   -3.0093914   -3.0093914   -1.7256854  0.051326536   -3.0093914     1.283706   530570 
 4514000   0.96210916   -3.0088021   -3.0088021   -1.7243306  0.054966532   -3.0088021    1.2844715   530541 
 4515000     0.961624   -3.0084699   -3.0084699   -1.7245759  0.053755515   -3.0084699     1.283894   530512 
 4516000   0.96220784   -3.0095065   -3.0095065   -1.7247652  0.057555062   -3.0095065    1.2847413   530484 
 4517000   0.96169211    -3.008363    -3.008363   -1.7242401  0.053558311    -3.008363    1.2841229   530455 
 4518000   0.96257634   -3.0094964   -3.0094964    -1.724125  0.054796073   -3.0094964    1.2853714   530427 
 4519000   0.96295076   -3.0096227   -3.0096227   -1.7236809  0.050193393   -3.0096227    1.2859417   530398 
 4520000   0.96269408   -3.0092801   -3.0092801   -1.7236133  0.054270716   -3.0092801    1.2856668   530370 
 4521000   0.96278335   -3.0100339   -3.0100339   -1.7241776  0.047473022   -3.0100339    1.2858563   530341 
 4522000   0.96187825   -3.0088425   -3.0088425   -1.7241247  0.058239971   -3.0088425    1.2847178   530312 
 4523000   0.96159601   -3.0091395   -3.0091395   -1.7247308   0.05827919   -3.0091395    1.2844086   530284 
 4524000   0.96116422   -3.0080336   -3.0080336   -1.7241316  0.057112349   -3.0080336    1.2839021   530255 
 4525000   0.96205204   -3.0098537   -3.0098537   -1.7246978   0.05108915   -3.0098537    1.2851559   530227 
 4526000   0.96011947   -3.0084788   -3.0084788   -1.7258344  0.054065854   -3.0084788    1.2826444   530198 
 4527000   0.96057235     -3.00859     -3.00859   -1.7252728  0.054807316     -3.00859    1.2833172   530170 
 4528000   0.96094956   -3.0098107   -3.0098107   -1.7259194  0.057523752   -3.0098107    1.2838914   530141 
 4529000   0.96042938   -3.0102664   -3.0102664   -1.7269998  0.055150307   -3.0102664    1.2832666   530112 
 4530000   0.95929793   -3.0090065   -3.0090065    -1.727184  0.051790645   -3.0090065    1.2818225   530084 
 4531000   0.96028372   -3.0094118   -3.0094118   -1.7262018  0.049807568   -3.0094118    1.2832099   530055 
 4532000   0.96045954   -3.0111022   -3.0111022   -1.7275895  0.051236188   -3.0111022    1.2835127   530027 
 4533000   0.95991558   -3.0104815   -3.0104815   -1.7276256  0.055720378   -3.0104815    1.2828559   529998 
 4534000   0.95944822   -3.0106422   -3.0106422   -1.7283431  0.050853443   -3.0106422    1.2822991   529970 
 4535000   0.95885761   -3.0091962   -3.0091962   -1.7276163  0.055851065   -3.0091962    1.2815799   529941 
 4536000   0.95795213   -3.0099151   -3.0099151   -1.7294754  0.050537078   -3.0099151    1.2804397   529912 
 4537000   0.95977153   -3.0106161   -3.0106161   -1.7276767  0.056373952   -3.0106161    1.2829394   529884 
 4538000    0.9589524   -3.0093066   -3.0093066    -1.727392  0.049645529   -3.0093066    1.2819146   529855 
 4539000   0.95947651   -3.0105783   -3.0105783   -1.7278953  0.049712501   -3.0105783     1.282683   529827 
 4540000   0.95960131    -3.011406    -3.011406   -1.7284859   0.05276522    -3.011406    1.2829201   529798 
 4541000   0.95986496   -3.0106751   -3.0106751   -1.7273348  0.055634314   -3.0106751    1.2833404   529770 
 4542000   0.96042574   -3.0130366   -3.0130366   -1.7288761   0.04942851   -3.0130366    1.2841604   529741 
 4543000    0.9600519   -3.0119466   -3.0119466   -1.7282157   0.04931943   -3.0119466    1.2837309   529712 
 4544000   0.96015257   -3.0125998   -3.0125998   -1.7286665  0.048280274   -3.0125998    1.2839333   529684 
 4545000   0.96022611   -3.0119132   -3.0119132   -1.7278112  0.059385388   -3.0119132     1.284102   529655 
 4546000   0.95960937   -3.0114218   -3.0114218   -1.7280767  0.055428464   -3.0114218    1.2833451   529627 
 4547000   0.95992385   -3.0115419   -3.0115419    -1.727706  0.053441517   -3.0115419    1.2838359   529598 
 4548000   0.96051846   -3.0128036   -3.0128036   -1.7281044  0.059563643   -3.0128036    1.2846991   529570 
 4549000   0.95843309   -3.0113578   -3.0113578   -1.7293776  0.059107008   -3.0113578    1.2819801   529541 
 4550000   0.95934903   -3.0125383   -3.0125383   -1.7292627  0.050885569   -3.0125383    1.2832755   529512 
 4551000    0.9587938   -3.0123096   -3.0123096   -1.7297089  0.049548707   -3.0123096    1.2826007   529484 
 4552000   0.95732054    -3.010561    -3.010561    -1.729861  0.048765626    -3.010561       1.2807   529455 
 4553000   0.95898359   -3.0126149   -3.0126149   -1.7296223  0.047284177   -3.0126149    1.2829927   529427 
 4554000   0.95652877   -3.0096442   -3.0096442   -1.7298656  0.050686556   -3.0096442    1.2797785   529398 
 4555000   0.95615629   -3.0089014   -3.0089014   -1.7295536  0.054867243   -3.0089014    1.2793478   529370 
 4556000   0.95801233   -3.0115326   -3.0115326   -1.7296311  0.050729492   -3.0115326    1.2819015   529341 
 4557000   0.95721763    -3.011547    -3.011547   -1.7306388  0.053159534    -3.011547    1.2809083   529312 
 4558000   0.95729237   -3.0119486   -3.0119486   -1.7308726  0.054576788   -3.0119486    1.2810761   529284 
 4559000   0.95810532    -3.012033    -3.012033   -1.7297988  0.055569676    -3.012033    1.2822342   529255 
 4560000   0.95786299   -3.0119497   -3.0119497   -1.7299719  0.053405983   -3.0119497    1.2819777   529227 
 4561000   0.95873629   -3.0130693   -3.0130693   -1.7298525  0.050290118   -3.0130693    1.2832169   529198 
 4562000   0.95731321   -3.0117521   -3.0117521   -1.7303722   0.05931976   -3.0117521    1.2813799   529170 
 4563000   0.95697358   -3.0112144   -3.0112144   -1.7302188  0.059911565   -3.0112144    1.2809955   529141 
 4564000   0.95615134   -3.0110248   -3.0110248   -1.7310598  0.056557447   -3.0110248     1.279965   529112 
 4565000   0.95699235   -3.0119038   -3.0119038   -1.7307452  0.044286434   -3.0119038    1.2811587   529084 
 4566000   0.95720938   -3.0128126   -3.0128126   -1.7312931  0.050729797   -3.0128126    1.2815195   529055 
 4567000   0.95389654   -3.0092488   -3.0092488    -1.732097  0.053383038   -3.0092488    1.2771518   529027 
 4568000   0.95758586   -3.0135754   -3.0135754   -1.7314138  0.060147509   -3.0135754    1.2821616   528998 
 4569000   0.95775079   -3.0140241   -3.0140241   -1.7315738  0.048823336   -3.0140241    1.2824503   528970 
 4570000   0.95792603   -3.0147603   -3.0147603    -1.732005  0.045419942   -3.0147603    1.2827553   528941 
 4571000   0.95501658   -3.0107912   -3.0107912   -1.7318618  0.055782145   -3.0107912    1.2789294   528912 
 4572000   0.95684623    -3.012824    -3.012824   -1.7313765  0.057744889    -3.012824    1.2814474   528884 
 4573000   0.95823239   -3.0144893   -3.0144893   -1.7311151  0.056296634   -3.0144893    1.2833742   528855 
 4574000   0.95838611   -3.0150748   -3.0150748   -1.7314267  0.049701544   -3.0150748    1.2836481   528827 
 4575000    0.9576195   -3.0138781   -3.0138781   -1.7311865  0.052834613   -3.0138781    1.2826916   528798 
 4576000   0.95722038   -3.0114432   -3.0114432   -1.7292183  0.053286309   -3.0114432    1.2822249   528770 
 4577000   0.95796927   -3.0131304   -3.0131304    -1.729832  0.063074791   -3.0131304    1.2832984   528741 
 4578000   0.95786578    -3.013891    -3.013891   -1.7306608  0.055500333    -3.013891    1.2832302   528712 
 4579000   0.95752223   -3.0140654   -3.0140654   -1.7312275  0.050580056   -3.0140654    1.2828379   528684 
 4580000   0.95826843   -3.0140574   -3.0140574   -1.7301493  0.059430428   -3.0140574     1.283908   528655 
 4581000   0.95800368   -3.0141536   -3.0141536   -1.7305323   0.05248379   -3.0141536    1.2836213   528627 
 4582000   0.96010371   -3.0167845   -3.0167845   -1.7302788  0.052564467   -3.0167845    1.2865057   528598 
 4583000   0.95819525   -3.0153529   -3.0153529   -1.7313365  0.059099926   -3.0153529    1.2840164   528570 
 4584000   0.95757148   -3.0144845   -3.0144845   -1.7312335  0.053765772   -3.0144845     1.283251   528541 
 4585000   0.95605511   -3.0117814   -3.0117814   -1.7304922  0.056880286   -3.0117814    1.2812892   528512 
 4586000   0.95557605   -3.0128341   -3.0128341   -1.7321191  0.057317248   -3.0128341     1.280715   528484 
 4587000   0.95653206   -3.0144424   -3.0144424   -1.7323757  0.043301895   -3.0144424    1.2820666   528455 
 4588000   0.95601143   -3.0124282   -3.0124282   -1.7309915  0.051078034   -3.0124282    1.2814367   528427 
 4589000   0.95557975   -3.0114337   -3.0114337   -1.7305053  0.059200564   -3.0114337    1.2809284   528398 
 4590000    0.9555118   -3.0123086   -3.0123086   -1.7314034  0.049875102   -3.0123086    1.2809052   528370 
 4591000   0.95444588   -3.0107431   -3.0107431   -1.7311966  0.045526585   -3.0107431    1.2795465   528341 
 4592000   0.95590112   -3.0134141   -3.0134141   -1.7318463  0.046990609   -3.0134141    1.2815678   528312 
 4593000   0.95595415   -3.0134444   -3.0134444   -1.7317376  0.045328483   -3.0134444    1.2817068   528284 
 4594000    0.9564324   -3.0131254   -3.0131254    -1.730707  0.044622426   -3.0131254    1.2824184   528255 
 4595000   0.95516398   -3.0115322   -3.0115322   -1.7307467  0.055438654   -3.0115322    1.2807856   528227 
 4596000   0.95510565    -3.011334    -3.011334   -1.7305563   0.05066959    -3.011334    1.2807777   528198 
 4597000   0.95449923   -3.0097825   -3.0097825   -1.7297501  0.050892016   -3.0097825    1.2800323   528170 
 4598000   0.95577333   -3.0118634   -3.0118634    -1.730052  0.055077327   -3.0118634    1.2818113   528141 
 4599000   0.95542782   -3.0107314   -3.0107314   -1.7293131  0.057159825   -3.0107314    1.2814183   528112 
 4600000   0.95610672   -3.0109776   -3.0109776   -1.7285807  0.049433511   -3.0109776    1.2823968   528084 
 4601000   0.95517572    -3.011097    -3.011097   -1.7298785  0.046694665    -3.011097    1.2812185   528055 
 4602000   0.95673119   -3.0139073   -3.0139073   -1.7305344  0.052406053   -3.0139073     1.283373   528027 
 4603000   0.95513507   -3.0124214   -3.0124214   -1.7311191  0.053668817   -3.0124214    1.2813023   527998 
 4604000   0.95592852   -3.0138546   -3.0138546   -1.7314199  0.066622335   -3.0138546    1.2824347   527970 
 4605000   0.95503289   -3.0131974   -3.0131974   -1.7318938  0.055898538   -3.0131974    1.2813035   527941 
 4606000   0.95544068    -3.014222    -3.014222   -1.7323009  0.044375411    -3.014222     1.281921   527912 
 4607000   0.95332091   -3.0122659   -3.0122659   -1.7331211  0.045784099   -3.0122659    1.2791448   527884 
 4608000   0.95469613   -3.0127954   -3.0127954    -1.731735  0.046211778   -3.0127954    1.2810604   527855 
 4609000   0.95358164   -3.0130477   -3.0130477   -1.7334149  0.057314982   -3.0130477    1.2796328   527827 
 4610000   0.95352232    -3.013638    -3.013638   -1.7340145  0.049419788    -3.013638    1.2796235   527798 
 4611000   0.95415314   -3.0149634   -3.0149634   -1.7344254  0.050783997   -3.0149634     1.280538   527770 
 4612000   0.95416788   -3.0151107   -3.0151107   -1.7344825  0.052946456   -3.0151107    1.2806281   527741 
 4613000   0.95293228   -3.0135703   -3.0135703   -1.7345302  0.053908237   -3.0135703    1.2790401   527712 
 4614000   0.95410662   -3.0155636   -3.0155636   -1.7348794  0.060486538   -3.0155636    1.2806842   527684 
 4615000   0.95372144   -3.0145274   -3.0145274   -1.7342898  0.053064425   -3.0145274    1.2802376   527655 
 4616000   0.95326383   -3.0146811   -3.0146811   -1.7349899  0.058581494   -3.0146811    1.2796912   527627 
 4617000   0.95422402   -3.0158385   -3.0158385   -1.7347879  0.044973668   -3.0158385    1.2810506   527598 
 4618000   0.95467546   -3.0169504   -3.0169504   -1.7352257  0.048079717   -3.0169504    1.2817247   527570 
 4619000   0.95370406   -3.0165423   -3.0165423   -1.7360514  0.047418226   -3.0165423    1.2804909   527541 
 4620000   0.95362851   -3.0159569   -3.0159569   -1.7354971  0.052797292   -3.0159569    1.2804598   527512 
 4621000   0.95462042   -3.0170189   -3.0170189   -1.7351591  0.059894243   -3.0170189    1.2818598   527484 
 4622000    0.9552217   -3.0189414   -3.0189414   -1.7362038  0.057090909   -3.0189414    1.2827377   527455 
 4623000   0.95288482   -3.0159006   -3.0159006   -1.7362331  0.055275872   -3.0159006    1.2796675   527427 
 4624000   0.95513233   -3.0183585   -3.0183585   -1.7356023  0.045466261   -3.0183585    1.2827563   527398 
 4625000   0.95421805   -3.0176023   -3.0176023   -1.7360059   0.05109437   -3.0176023    1.2815964   527370 
 4626000   0.95414385    -3.016541    -3.016541   -1.7349738  0.052010042    -3.016541    1.2815672   527341 
 4627000   0.95367986   -3.0160758   -3.0160758   -1.7350613  0.055817922   -3.0160758    1.2810145   527312 
 4628000   0.95467682   -3.0173438   -3.0173438   -1.7349221  0.053029051   -3.0173438    1.2824217   527284 
 4629000   0.95502888    -3.018749    -3.018749   -1.7357838  0.061669008    -3.018749    1.2829652   527255 
 4630000   0.95344854   -3.0164536   -3.0164536   -1.7355434  0.056046545   -3.0164536    1.2809102   527227 
 4631000   0.95419817   -3.0172369   -3.0172369   -1.7352491  0.058894827   -3.0172369    1.2819878   527198 
 4632000   0.95464115   -3.0177293   -3.0177293   -1.7350782  0.058086844   -3.0177293    1.2826511   527170 
 4633000   0.95505918     -3.01902     -3.01902   -1.7357366  0.058060684     -3.01902    1.2832834   527141 
 4634000     0.952632   -3.0164115   -3.0164115    -1.736319  0.050020725   -3.0164115    1.2800925   527112 
 4635000   0.95227742   -3.0164511   -3.0164511   -1.7367671  0.059330804   -3.0164511     1.279684   527084 
 4636000   0.95178648   -3.0160705   -3.0160705   -1.7369759  0.054730768   -3.0160705    1.2790946   527055 
 4637000   0.95228023   -3.0158019   -3.0158019   -1.7359758  0.049674496   -3.0158019    1.2798262   527027 
 4638000   0.95239379   -3.0163662   -3.0163662    -1.736317  0.055895395   -3.0163662    1.2800492   526998 
 4639000   0.95227154   -3.0159099   -3.0159099    -1.735957  0.053987867   -3.0159099    1.2799529   526970 
 4640000   0.95086414    -3.013908    -3.013908   -1.7357765  0.061636024    -3.013908    1.2781316   526941 
 4641000   0.95151328   -3.0145148   -3.0145148   -1.7354403  0.054589452   -3.0145148    1.2790745   526912 
 4642000   0.95128537   -3.0158791   -3.0158791    -1.737043  0.046913922   -3.0158791    1.2788361   526884 
 4643000   0.95039578    -3.015664    -3.015664   -1.7379535  0.050309244    -3.015664    1.2777105   526855 
 4644000   0.94995559   -3.0141005   -3.0141005   -1.7369139  0.052870347   -3.0141005    1.2771866   526827 
 4645000   0.95007499   -3.0138563   -3.0138563   -1.7364388  0.054561253   -3.0138563    1.2774175   526798 
 4646000   0.95088595   -3.0142096   -3.0142096   -1.7356338  0.048923699   -3.0142096    1.2785758   526770 
 4647000   0.95100594   -3.0145931   -3.0145931   -1.7357855  0.044857079   -3.0145931    1.2788075   526741 
 4648000   0.95046747    -3.012695    -3.012695   -1.7345411  0.051161661    -3.012695    1.2781538   526712 
 4649000   0.95133693   -3.0142638   -3.0142638   -1.7348727  0.052926934   -3.0142638    1.2793911   526684 
 4650000   0.94974163   -3.0120269   -3.0120269   -1.7347109  0.048534584   -3.0120269     1.277316   526655 
 4651000   0.95108435   -3.0131957   -3.0131957   -1.7340058  0.042962734   -3.0131957    1.2791898   526627 
 4652000   0.95121792   -3.0136189   -3.0136189    -1.734179  0.049858032   -3.0136189    1.2794399   526598 
 4653000   0.95044697   -3.0139155   -3.0139155   -1.7354446  0.053262414   -3.0139155    1.2784709   526570 
 4654000   0.95081799   -3.0137853   -3.0137853   -1.7347448  0.043153945   -3.0137853    1.2790404   526541 
 4655000   0.94868266   -3.0118952   -3.0118952   -1.7356569  0.039113949   -3.0118952    1.2762383   526512 
 4656000   0.94972803   -3.0137723   -3.0137723   -1.7360597  0.053616197   -3.0137723    1.2777125   526484 
 4657000   0.94922899   -3.0133027   -3.0133027   -1.7361911  0.057465305   -3.0133027    1.2771115   526455 
 4658000   0.94997184   -3.0135596   -3.0135596   -1.7353806  0.048434111   -3.0135596    1.2781789   526427 
 4659000   0.95069742   -3.0151072   -3.0151072   -1.7358815  0.049515203   -3.0151072    1.2792257   526398 
 4660000   0.94995877   -3.0141364   -3.0141364   -1.7358366  0.049256739   -3.0141364    1.2782998   526370 
 4661000   0.95061619   -3.0153972   -3.0153972   -1.7361423  0.049096587   -3.0153972    1.2792549   526341 
 4662000   0.95069191   -3.0144142   -3.0144142   -1.7349869  0.048900362   -3.0144142    1.2794273   526312 
 4663000   0.95078846   -3.0157822   -3.0157822   -1.7361569  0.046289671   -3.0157822    1.2796253   526284 
[...]
23833000 0.0029423062  -0.16037103  -0.16037103  -0.13247628 0.0012593032  -0.16037103  0.027894745    74711 
23834000 0.0029577991  -0.16054708  -0.16054708  -0.13250545 0.00021016829  -0.16054708  0.028041626    74711 
23835000 0.0029270335  -0.16013804  -0.16013804  -0.13238809 -0.0016041091  -0.16013804  0.027749951    74711 
23836000  0.002959848   -0.1600139   -0.1600139  -0.13195247 0.00052052845   -0.1600139  0.028061427    74710 
23837000 0.0029659675  -0.16010587  -0.16010587  -0.13198605 0.00073375162  -0.16010587  0.028119821    74709 
23838000 0.0030069531  -0.16052325  -0.16052325  -0.13201447 -0.0016583841  -0.16052325   0.02850878    74708 
23839000 0.0029393156  -0.15988101  -0.15988101   -0.1320135 0.0002816457  -0.15988101  0.027867511    74708 
23840000 0.0029512828  -0.16019187  -0.16019187   -0.1322109 0.00071564059  -0.16019187  0.027980972    74708 
23841000 0.0029271053  -0.15992847  -0.15992847  -0.13217673 -0.0011651757  -0.15992847  0.027751746    74708 
23842000 0.0028947636  -0.15936622  -0.15936622  -0.13192073 0.0018943874  -0.15936622  0.027445484    74707 
23843000 0.0029610491  -0.15988316  -0.15988316  -0.13180884 -0.00053607525  -0.15988316  0.028074318    74706 
23844000  0.002893188  -0.15955145  -0.15955145  -0.13211944 -0.0002922676  -0.15955145  0.027432014    74703 
23845000 0.0028562084   -0.1591697   -0.1591697  -0.13208831 0.00036367386   -0.1591697  0.027081389    74703 
23846000 0.0028950703  -0.15935633  -0.15935633   -0.1319061 0.0015459609  -0.15935633  0.027450228    74702 
23847000 0.0029489345  -0.15971249  -0.15971249  -0.13175116 0.0017559407  -0.15971249  0.027961328    74701 
23848000 0.0029116181  -0.15941976  -0.15941976  -0.13181115 0.00040142378  -0.15941976  0.027608608    74698 
23849000  0.002873786  -0.15915577  -0.15915577  -0.13190553 -0.0005498391  -0.15915577  0.027250241    74697 
23850000 0.0027768027  -0.15836353  -0.15836353  -0.13203292 0.00091850671  -0.15836353  0.026330611    74697 
23851000 0.0029281152  -0.15984869  -0.15984869  -0.13208291 -0.00085766959  -0.15984869  0.027765781    74696 
23852000  0.002890645  -0.15931317  -0.15931317  -0.13190233 0.00045082564  -0.15931317  0.027410838    74695 
23853000 0.0029171272  -0.15943577  -0.15943577  -0.13177381 0.0026366969  -0.15943577  0.027661958    74695 
23854000 0.0030150361  -0.16047872  -0.16047872  -0.13188795 0.0014041051  -0.16047872  0.028590772    74694 
23855000 0.0028932431   -0.1592896   -0.1592896  -0.13185339 0.00033432383   -0.1592896  0.027436209    74693 
23856000 0.0028870934  -0.15943072  -0.15943072  -0.13205173 -0.00028008226  -0.15943072  0.027378992    74690 
23857000 0.0028320644  -0.15916048  -0.15916048  -0.13230298 -0.00075301341  -0.15916048  0.026857499    74689 
23858000 0.0028606995  -0.15934329  -0.15934329  -0.13221387 -0.00026244693  -0.15934329  0.027129419    74688 
23859000 0.0029039484  -0.15987616  -0.15987616  -0.13233659 -0.0012632538  -0.15987616   0.02753957    74688 
23860000 0.0029870981  -0.16036256  -0.16036256  -0.13203406 -0.0011501289  -0.16036256  0.028328498    74687 
23861000 0.0028678884  -0.15926165  -0.15926165  -0.13206332 -0.0012102015  -0.15926165  0.027198323    74686 
23862000  0.002885006  -0.15924314  -0.15924314  -0.13188247 -0.0023337285  -0.15924314  0.027360662    74686 
23863000 0.0028179207  -0.15853536  -0.15853536  -0.13181092 -0.0013916124  -0.15853536  0.026724442    74686 
23864000 0.0028540284   -0.1589551   -0.1589551  -0.13188786 -0.00024294005   -0.1589551   0.02706724    74685 
23865000 0.0028333791  -0.15891381  -0.15891381  -0.13204241 -0.0010898043  -0.15891381  0.026871406    74685 
23866000 0.0028583251  -0.15899895  -0.15899895  -0.13189096 0.00083236523  -0.15899895   0.02710799    74685 
23867000 0.0028980505  -0.15926969  -0.15926969  -0.13178495 -0.00098543958  -0.15926969   0.02748474    74685 
23868000 0.0028155745  -0.15859455  -0.15859455    -0.131892 -0.0018023242  -0.15859455  0.026702549    74685 
23869000 0.0028479172  -0.15892578  -0.15892578  -0.13191613 -0.0016002094  -0.15892578  0.027009644    74684 
23870000 0.0028031221  -0.15837563  -0.15837563  -0.13179082 -0.0010602837  -0.15837563  0.026584808    74684 
23871000 0.0028974001  -0.15931474  -0.15931474   -0.1318358 -0.00048548128  -0.15931474  0.027478941    74684 
23872000 0.0028113366  -0.15878693  -0.15878693  -0.13212386 -0.0012466051  -0.15878693  0.026663071    74683 
23873000 0.0027483828  -0.15826654  -0.15826654  -0.13220018 -0.00091599175  -0.15826654  0.026066358    74682 
23874000 0.0028825488  -0.15948434  -0.15948434  -0.13214442 -0.00070954572  -0.15948434  0.027339921    74679 
23875000 0.0028225191  -0.15898154  -0.15898154  -0.13221098 0.00052672429  -0.15898154  0.026770561    74679 
23876000 0.0029009907  -0.15960515  -0.15960515  -0.13209032 0.0014591823  -0.15960515  0.027514836    74679 
23877000  0.002827627   -0.1589316   -0.1589316  -0.13211223 0.00073981242   -0.1589316  0.026819367    74678 
23878000 0.0028445117  -0.15898459  -0.15898459  -0.13200508 0.00095276946  -0.15898459  0.026979515    74678 
23879000  0.002893519  -0.15933894  -0.15933894   -0.1318946 0.0012206333  -0.15933894  0.027444337    74678 
23880000 0.0028205458  -0.15853227  -0.15853227  -0.13177971 -0.00010723843  -0.15853227  0.026752562    74677 
23881000 0.0029009789  -0.15939095  -0.15939095  -0.13187549 -0.00069440393  -0.15939095   0.02751546    74677 
23882000  0.002835301  -0.15863178  -0.15863178  -0.13173926 -0.0019138236  -0.15863178  0.026892513    74677 
23883000 0.0028250427   -0.1586357   -0.1586357  -0.13184048 0.0017074693   -0.1586357  0.026795214    74677 
23884000 0.0028082444   -0.1585317   -0.1585317  -0.13189546 -0.00055578752   -0.1585317  0.026636241    74676 
23885000 0.0028337897     -0.15895     -0.15895   -0.1320711 0.0039352836     -0.15895  0.026878899    74675 
23886000 0.0028282347   -0.1589587   -0.1589587  -0.13213249 -0.0003130307   -0.1589587  0.026826208    74675 
23887000 0.0028727856   -0.1592305   -0.1592305  -0.13198172 0.0016922171   -0.1592305   0.02724878    74675 
23888000 0.0027386036  -0.15806822  -0.15806822  -0.13209217 -0.00047113841  -0.15806822  0.025976044    74675 
23889000 0.0028842055  -0.15935175  -0.15935175  -0.13199465 0.0011123362  -0.15935175    0.0273571    74675 
23890000 0.0027768861  -0.15834666  -0.15834666  -0.13200715 -0.00034913834  -0.15834666  0.026339513    74674 
23891000  0.002787909  -0.15841771  -0.15841771  -0.13197328 0.00041471312  -0.15841771  0.026444422    74673 
23892000 0.0027309401  -0.15801538  -0.15801538  -0.13211099 -0.0005094173  -0.15801538  0.025904396    74672 
23893000 0.0027889721  -0.15865296  -0.15865296  -0.13219774 -0.00075114152  -0.15865296  0.026455214    74671 
23894000 0.0027912727  -0.15860694  -0.15860694  -0.13212991 0.00049511497  -0.15860694  0.026477037    74671 
23895000 0.0027811702  -0.15855628  -0.15855628  -0.13217436 -0.00029151244  -0.15855628  0.026381915    74669 
23896000 0.0027771363  -0.15856092  -0.15856092  -0.13221727 8.3606396e-05  -0.15856092   0.02634365    74669 
23897000 0.0028132259  -0.15886328  -0.15886328  -0.13217693 -0.00022837834  -0.15886328   0.02668635    74668 
23898000 0.0028410874  -0.15913465  -0.15913465  -0.13218401 0.0010310759  -0.15913465  0.026950645    74668 
23899000 0.0027450312  -0.15837163  -0.15837163  -0.13233218 0.00015213649  -0.15837163  0.026039452    74668 
23900000 0.0027444804  -0.15838459  -0.15838459  -0.13235002 0.00081778735  -0.15838459  0.026034576    74667 
23901000 0.0028016929  -0.15890437  -0.15890437  -0.13232706 -0.00075719518  -0.15890437  0.026577303    74667 
23902000 0.0028810848  -0.15982303  -0.15982303   -0.1324926 0.0017292529  -0.15982303  0.027330427    74667 
23903000 0.0027930821  -0.15899315  -0.15899315  -0.13249753 -0.00048160075  -0.15899315   0.02649562    74667 
23904000 0.0027571111  -0.15857531  -0.15857531  -0.13242092 -3.2098658e-05  -0.15857531  0.026154393    74667 
23905000 0.0027744583  -0.15881525  -0.15881525   -0.1324956 -0.00069178382  -0.15881525  0.026319656    74665 
23906000  0.002707889  -0.15824334  -0.15824334  -0.13255519 0.0020610486  -0.15824334  0.025688152    74665 
23907000 0.0027795834  -0.15890813  -0.15890813  -0.13253951 0.0019488192  -0.15890813  0.026368628    74664 
23908000 0.0027411516  -0.15869813  -0.15869813  -0.13269409 0.00072185227  -0.15869813  0.026004044    74664 
23909000 0.0027568389  -0.15870975  -0.15870975  -0.13255688 -0.0006836765  -0.15870975  0.026152862    74664 
23910000 0.0027936912   -0.1590291   -0.1590291  -0.13252629 0.0016087183   -0.1590291  0.026502817    74663 
23911000 0.0026976231  -0.15810675  -0.15810675  -0.13251529 -0.0014643635  -0.15810675  0.025591451    74663 
23912000 0.0027750387  -0.15888774  -0.15888774  -0.13256187 -0.00045300377  -0.15888774  0.026325867    74663 
23913000  0.002813757  -0.15920843  -0.15920843  -0.13251526 0.0016383617  -0.15920843  0.026693175    74663 
23914000 0.0027941592  -0.15910333  -0.15910333  -0.13259608 8.6494004e-06  -0.15910333  0.026507257    74663 
23915000  0.002722861  -0.15829008  -0.15829008  -0.13245921 -0.00048273851  -0.15829008  0.025830875    74663 
23916000 0.0027840075  -0.15891719  -0.15891719  -0.13250624 0.0010697843  -0.15891719  0.026410951    74663 
23917000 0.0027195722  -0.15829007  -0.15829007  -0.13249005 -0.0011647411  -0.15829007  0.025800021    74662 
23918000  0.002764473  -0.15884137  -0.15884137  -0.13261539 0.00044746094  -0.15884137  0.026225986    74662 
23919000 0.0027260104  -0.15846464  -0.15846464  -0.13260354 0.00020135698  -0.15846464  0.025861099    74662 
23920000 0.0026925279   -0.1582333   -0.1582333   -0.1326895 -0.001502306   -0.1582333  0.025543799    74661 
23921000 0.0027877512  -0.15902813  -0.15902813  -0.13258061 0.0010745289  -0.15902813  0.026447529    74660 
23922000  0.002742305  -0.15870742  -0.15870742  -0.13269035 -0.0023557144  -0.15870742  0.026017076    74658 
23923000 0.0026930166  -0.15820127  -0.15820127   -0.1326518 -0.00077693916  -0.15820127  0.025549462    74658 
23924000 0.0027939034  -0.15916257  -0.15916257  -0.13265597 0.00071964677  -0.15916257  0.026506606    74658 
23925000 0.0027831345  -0.15915276  -0.15915276  -0.13274797 0.00087558868  -0.15915276  0.026404792    74657 
23926000 0.0028717411  -0.15993794  -0.15993794  -0.13269177 0.0014335778  -0.15993794   0.02724617    74655 
23927000 0.0027761873  -0.15908584  -0.15908584  -0.13274625 -0.0021195443  -0.15908584  0.026339586    74655 
23928000 0.0028271628  -0.15973156  -0.15973156  -0.13290834 -0.00097293089  -0.15973156  0.026823225    74655 
23929000 0.0026697437   -0.1580611   -0.1580611  -0.13273108 0.00067006633   -0.1580611  0.025330022    74654 
23930000  0.002726403  -0.15872255  -0.15872255  -0.13285495 0.00059767914  -0.15872255  0.025867595    74654 
23931000 0.0027735541  -0.15918802  -0.15918802  -0.13287307 0.00032206822  -0.15918802  0.026314955    74654 
23932000 0.0027218839  -0.15867445  -0.15867445  -0.13284939 0.00089355039  -0.15867445  0.025825065    74653 
23933000 0.0027310166  -0.15878306  -0.15878306  -0.13287134 0.00024079274  -0.15878306  0.025911715    74653 
23934000  0.002723174  -0.15873446  -0.15873446  -0.13289715  0.001036991  -0.15873446  0.025837305    74653 
23935000 0.0027466741  -0.15890292  -0.15890292  -0.13284264 0.00029263172  -0.15890292  0.026060272    74653 
23936000 0.0026914928  -0.15833049  -0.15833049  -0.13279343 2.9557345e-05  -0.15833049  0.025537057    74652 
23937000 0.0027737086  -0.15899588  -0.15899588  -0.13267876  0.001504215  -0.15899588  0.026317126    74652 
23938000 0.0026963647  -0.15839584  -0.15839584  -0.13281256 0.00064427672  -0.15839584  0.025583282    74652 
23939000 0.0027471384  -0.15887852  -0.15887852  -0.13281349 -0.0017733286  -0.15887852  0.026065027    74652 
23940000 0.0026412927  -0.15783838  -0.15783838  -0.13277763 -0.0018075445  -0.15783838  0.025060756    74652 
23941000  0.002705969  -0.15848827  -0.15848827  -0.13281352 0.00020180581  -0.15848827  0.025674753    74651 
23942000 0.0026729762  -0.15819729  -0.15819729  -0.13283558 0.00027234683  -0.15819729  0.025361711    74651 
23943000 0.0027004645  -0.15832338  -0.15832338  -0.13270051 -5.8939472e-05  -0.15832338  0.025622868    74650 
23944000 0.0028339209  -0.15958686  -0.15958686  -0.13269772 0.0019051639  -0.15958686  0.026889145    74650 
23945000 0.0027614605  -0.15894678  -0.15894678  -0.13274516 -0.00054365919  -0.15894678  0.026201618    74650 
23946000 0.0026734465  -0.15810552  -0.15810552  -0.13273832 0.00030655404  -0.15810552  0.025367193    74648 
23947000 0.0026823051   -0.1582732   -0.1582732  -0.13282196 -0.00052430757   -0.1582732  0.025451248    74648 
23948000 0.0026650431    -0.158258    -0.158258  -0.13297021 0.0010929943    -0.158258  0.025287795    74647 
23949000 0.0027534979  -0.15898021  -0.15898021  -0.13285275 0.00079752055  -0.15898021  0.026127466    74646 
23950000 0.0026592268  -0.15808493  -0.15808493  -0.13285131 -0.00015520786  -0.15808493   0.02523362    74644 
23951000 0.0026439919  -0.15783869  -0.15783869  -0.13274964 0.0011506958  -0.15783869  0.025089055    74644 
23952000 0.0026203087  -0.15775403  -0.15775403  -0.13288971 -0.0010401369  -0.15775403  0.024864322    74644 
23953000 0.0026267445  -0.15790672  -0.15790672  -0.13298066 -0.00057476345  -0.15790672  0.024926061    74642 
23954000 0.0026948245    -0.158674    -0.158674  -0.13310156 -0.0011225651    -0.158674  0.025572437    74641 
23955000 0.0027370555  -0.15903427  -0.15903427  -0.13306109 -0.0014706233  -0.15903427  0.025973187    74641 
23956000 0.0027266101  -0.15891501  -0.15891501  -0.13304095 0.00042879595  -0.15891501  0.025874065    74641 
23957000 0.0026585835  -0.15836476  -0.15836476  -0.13313623 -0.0010756278  -0.15836476   0.02522853    74641 
23958000 0.0026282757  -0.15803563  -0.15803563  -0.13309437 0.0020386623  -0.15803563  0.024941259    74640 
23959000 0.0026535364  -0.15828424  -0.15828424  -0.13310327 -0.00054660763  -0.15828424  0.025180972    74640 
23960000 0.0026665181  -0.15835943  -0.15835943  -0.13305526 -0.00065136782  -0.15835943  0.025304164    74640 
23961000 0.0026363718  -0.15812694  -0.15812694  -0.13310885  0.002732681  -0.15812694  0.025018087    74640 
23962000 0.0027066452  -0.15873817  -0.15873817  -0.13305288 0.00029256753  -0.15873817  0.025685297    74639 
23963000 0.0026838514  -0.15861611  -0.15861611  -0.13314678 0.00056897287  -0.15861611  0.025469332    74638 
23964000 0.0026374551  -0.15816984  -0.15816984   -0.1331408 -0.0010614806  -0.15816984  0.025029038    74638 
23965000 0.0026439491  -0.15826434  -0.15826434  -0.13317368 -0.0010663499  -0.15826434  0.025090665    74638 
23966000 0.0025741128  -0.15752032  -0.15752032  -0.13309239 -0.0021815601  -0.15752032   0.02442793    74638 
23967000  0.002690904   -0.1587026   -0.1587026  -0.13316634 -0.00092459936   -0.1587026   0.02553626    74638 
23968000 0.0027353763  -0.15924743  -0.15924743  -0.13328913 0.00038940407  -0.15924743  0.025958296    74638 
23969000  0.002675093  -0.15861593  -0.15861593  -0.13322971 0.00078875231  -0.15861593  0.025386216    74638 
23970000 0.0026706545  -0.15854273  -0.15854273  -0.13319864 -0.0011364225  -0.15854273  0.025344096    74638 
23971000 0.0026200372  -0.15810911  -0.15810911  -0.13324536 -0.00010765902  -0.15810911  0.024863746    74638 
23972000 0.0026014562  -0.15788252  -0.15788252   -0.1331951 -0.0005941032  -0.15788252  0.024687415    74638 
23973000 0.0027076404  -0.15895707  -0.15895707  -0.13326198 0.0014101366  -0.15895707  0.025695086    74638 
23974000 0.0025981473  -0.15794409  -0.15794409  -0.13328774 -3.3173394e-05  -0.15794409  0.024656344    74637 
23975000 0.0026781784  -0.15875249  -0.15875249  -0.13333665 0.0022201047  -0.15875249  0.025415836    74637 
23976000 0.0027402304  -0.15930412  -0.15930412  -0.13329906 0.0028570189  -0.15930412  0.026005056    74636 
23977000 0.0027065567  -0.15891962  -0.15891962  -0.13323344 0.00044197915  -0.15891962  0.025686178    74634 
23978000 0.0026439041  -0.15834175  -0.15834175  -0.13325016 0.0023187417  -0.15834175  0.025091583    74634 
23979000 0.0026609457  -0.15846062  -0.15846062   -0.1332073 -0.001123738  -0.15846062  0.025253314    74634 
23980000 0.0026781548  -0.15870264  -0.15870264  -0.13328601 -0.00038350213  -0.15870264  0.025416634    74634 
23981000 0.0026481046   -0.1584557   -0.1584557  -0.13332358 -0.00071285196   -0.1584557   0.02513212    74632 
23982000 0.0026739854  -0.15867532  -0.15867532  -0.13329757 -0.00052978323  -0.15867532  0.025377745    74632 
23983000 0.0026499501  -0.15848914  -0.15848914  -0.13333883 -0.0016489543  -0.15848914   0.02515031    74630 
23984000  0.002646671   -0.1586302   -0.1586302  -0.13351033 -0.00065489289   -0.1586302  0.025119861    74628 
23985000 0.0025943692  -0.15814734  -0.15814734  -0.13352388 -0.0015109556  -0.15814734  0.024623458    74628 
23986000 0.0026256737  -0.15848102  -0.15848102  -0.13356045 0.0039772434  -0.15848102  0.024920574    74628 
23987000   0.00269004  -0.15898751  -0.15898751  -0.13345603 -0.0023115921  -0.15898751  0.025531482    74628 
23988000 0.0026872604   -0.1590149   -0.1590149   -0.1335098 -0.00064924279   -0.1590149    0.0255051    74628 
23989000 0.0026151481  -0.15829127  -0.15829127   -0.1334706 0.00067692359  -0.15829127  0.024820674    74628 
23990000 0.0026140159  -0.15832568  -0.15832568  -0.13351575 -0.00011928346  -0.15832568  0.024809928    74628 
23991000 0.0026253188  -0.15836371  -0.15836371   -0.1334465 0.0011858496  -0.15836371  0.024917205    74628 
23992000 0.0026965615   -0.1589779   -0.1589779  -0.13338453 0.0015000481   -0.1589779  0.025593378    74628 
23993000 0.0026939565  -0.15909653  -0.15909653  -0.13352787 0.0016605338  -0.15909653  0.025568654    74628 
23994000 0.0026628489  -0.15893786  -0.15893786  -0.13366446 9.1547912e-05  -0.15893786  0.025273408    74628 
23995000 0.0026609755  -0.15885519  -0.15885519  -0.13359956 0.00020397835  -0.15885519  0.025255627    74628 
23996000 0.0025936354  -0.15822644  -0.15822644  -0.13360995 0.00046039174  -0.15822644  0.024616495    74628 
23997000   0.00259132  -0.15814842  -0.15814842  -0.13355391 0.0013004367  -0.15814842  0.024594518    74628 
23998000 0.0026008946  -0.15823491  -0.15823491  -0.13354951 -0.0013161867  -0.15823491  0.024685392    74628 
23999000 0.0026105786  -0.15819991  -0.15819991  -0.13342261 -0.0010167404  -0.15819991  0.024777305    74628 
24000000 0.0026045961  -0.15823567  -0.15823567  -0.13351448 -0.002595901  -0.15823567  0.024721186    74626 
Loop time of 29439.9 on 288 procs for 20000000 steps with 74626 atoms

Performance: 293478.911 tau/day, 679.349 timesteps/s
96.1% CPU use with 288 MPI tasks x 1 OpenMP threads

MPI task timing breakdown:
Section |  min time  |  avg time  |  max time  |%varavg|  %CPU | %total
-----------------------------------------------------------------------
Pair    | 1732.7     | 4022.3     | 5052.3     |1179.5 |  97.1 | 13.66
Bond    | 13.246     | 13.74      | 14.426     |   5.7 | 100.0 |  0.05
Neigh   | 1716.5     | 4011       | 5371.4     |1202.5 |  98.9 | 13.62
Comm    | 9348.9     | 12779      | 14490      |1090.1 |  95.7 | 43.41
Output  | 999.98     | 1001.2     | 1004.2     |   3.8 |  93.9 |  3.40
Modify  | 5513.9     | 7215.5     | 10724      |1597.3 |  95.8 | 24.51
Other   |            | 396.8      |            |       |       |  1.35

Nlocal:        259.118 ave        1433 max           0 min
Histogram: 82 90 91 8 5 6 3 2 0 1
Nghost:        4724.12 ave        8330 max           0 min
Histogram: 26 20 5 14 30 37 52 47 39 18
Neighs:        232.788 ave        1243 max           0 min
Histogram: 159 24 24 21 24 13 11 7 4 1

Total # of neighbors = 67043
Ave neighs/atom = 0.89838662
Ave special neighs/atom = 0.0000000
Neighbor list builds = 2221593
Dangerous builds = 1428597

Total wall time: 8:10:44
