LAMMPS (24 Dec 2020)
OMP_NUM_THREADS environment is not set. Defaulting to 1 thread. (src/comm.cpp:94)
  using 1 OpenMP thread(s) per MPI task
# Simple rigid body system
# needed variables: startTemp, temp

units		lj
atom_style	full
dimension 	3
boundary	p p f
pair_style	lj/cut/opt 2.5

variable 	gcmcdisplace	equal 0
variable 	sigma		equal 1.0
variable 	epsilon 	equal 1.0


read_restart	restart.dat.3000000
Reading restart file ...
  restart file = 24 Dec 2020, LAMMPS = 24 Dec 2020
WARNING: Restart file used different # of processors: 144 vs. 192 (src/read_restart.cpp:697)
  restoring atom style full from restart
  orthogonal box = (0.0000000 0.0000000 0.0000000) to (100.00000 100.00000 200.00000)
  4 by 4 by 12 MPI processor grid
  restoring pair style lj/cut/opt from restart
  878832 atoms
Finding 1-2 1-3 1-4 neighbors ...
  special bond factors lj:    0        0        0       
  special bond factors coul:  0        0        0       
     0 = max # of 1-2 neighbors
     0 = max # of 1-3 neighbors
     0 = max # of 1-4 neighbors
     1 = max # of special neighbors
  special bonds CPU = 1.401 seconds
  read_restart CPU = 1.856 seconds

mass		1 1.0
mass		2 1.0
mass		3 1.0


group		solvent type 1
878832 atoms in group solvent


neighbor 	0.4 bin

pair_coeff	1 1 1.0 1.0
pair_coeff	2 2 0.0 0.0
pair_coeff	3 3 0.0 0.0
pair_coeff	2 3 0.0 0.0
pair_coeff	1 2*3 0.0 0.0

pair_modify 	shift yes


balance 	1.05 shift z 10 1.05
Balancing ...
Neighbor list info ...
  update every 1 steps, delay 10 steps, check yes
  max neighbors/atom: 2000, page size: 100000
  master list distance cutoff = 2.9
  ghost atom cutoff = 2.9
  binsize = 1.45, bins = 69 69 138
  1 neighbor lists, perpetual/occasional/extra = 1 0 0
  (1) pair lj/cut/opt, perpetual
      attributes: half, newton on
      pair build: half/bin/newton
      stencil: half/bin/3d/newton
      bin: standard
 rebalancing time: 0.008 seconds
  iteration count = 4
  initial/final maximal load/proc = 6332.0000 5548.0000
  initial/final imbalance factor  = 1.3833634 1.2120815
  x cuts: 0.0000000 0.25000000 0.50000000 0.75000000 1.0000000
  y cuts: 0.0000000 0.25000000 0.50000000 0.75000000 1.0000000
  z cuts: 0.0000000 0.067708333 0.13020833 0.19270833 0.25520833 0.32291667 0.38541667 0.44791667 0.51041667 0.57812500 0.63020833 0.68229167 1.0000000


####################### WALLS ###########################


variable       epsilonWall equal 2*${epsilon}
variable       epsilonWall equal 2*1

variable       cutoffTop   equal   0.7147*${sigma}
variable       cutoffTop   equal   0.7147*1

variable       cutoffLow   equal   3*${sigma}
variable       cutoffLow   equal   3*1


fix            topWall all wall/lj93 zhi EDGE                ${epsilonWall} ${sigma} ${cutoffTop} units box
fix            topWall all wall/lj93 zhi EDGE                2 ${sigma} ${cutoffTop} units box
fix            topWall all wall/lj93 zhi EDGE                2 1 ${cutoffTop} units box
fix            topWall all wall/lj93 zhi EDGE                2 1 0.7147 units box

fix            lowWall all wall/lj93 zlo EDGE                ${epsilonWall} ${sigma} ${cutoffLow} units box
fix            lowWall all wall/lj93 zlo EDGE                2 ${sigma} ${cutoffLow} units box
fix            lowWall all wall/lj93 zlo EDGE                2 1 ${cutoffLow} units box
fix            lowWall all wall/lj93 zlo EDGE                2 1 3 units box


###################### COMPUTES ##########################

compute        bin1 solvent chunk/atom bin/1d z upper 1.0



######################	FIXES ############################


fix 		peclet solvent ave/chunk 1000 1 1000 bin1 density/number norm 		 none ave one file density.profile

fix 		 temp solvent ave/chunk 1000 1 1000 bin1 temp norm none ave one file temp.profile

fix 		2 solvent nve

## Thermostat


region		regthermo block EDGE EDGE EDGE EDGE 0 20

group 		thermo dynamic solvent region regthermo every 1000
dynamic group thermo defined

fix 		3 thermo langevin ${startTemp} ${temp} 10 156453
fix 		3 thermo langevin 1.0 ${temp} 10 156453
fix 		3 thermo langevin 1.0 1.0 10 156453


## Evaporation

region		regevap block EDGE EDGE EDGE EDGE 180 198
fix 		gcmc solvent gcmc 100 100 0 1 780493 ${temp} ${mu} ${gcmcdisplace} region regevap
fix 		gcmc solvent gcmc 100 100 0 1 780493 1.0 ${mu} ${gcmcdisplace} region regevap
fix 		gcmc solvent gcmc 100 100 0 1 780493 1.0 -.75 ${gcmcdisplace} region regevap
fix 		gcmc solvent gcmc 100 100 0 1 780493 1.0 -.75 0 region regevap


#### Load balancing

fix 		bal all balance 1000 1.05 shift z 10 1.05

############### Diagnostics and computes ###################
#compute 	com cube	  rigid/local	1 mol x y z
#compute 	quat cube	  rigid/local	1 mol quatw quati quatj quatk

thermo 		1000
thermo_style 	custom step temp epair etotal press pe ke atoms

dump		1 all custom 100000 dump.lammpstrj id mol type x y z
dump 		2 all image 10000 image.*.png type type
dump 		3 all movie 1000 movie.avi type type
#dump 		com cube local 1000 dump.*.xyz c_com[*]
#dump		quat cube      local 1000 dump.*.quat c_quat[*]


restart 	1000000 restart.dat
timestep 	0.005
timer 		full
New timer settings: style=full  mode=nosync  timeout=off


run		5000000
Per MPI rank memory allocation (min/avg/max) = 12.26 | 12.63 | 13.06 Mbytes
Step Temp E_pair TotEng Press PotEng KinEng Atoms 
 3000000   0.98378862   -3.3591705   -1.8834892  0.056035388   -3.3591705    1.4756812   878832 
 3001000   0.98568639   -3.3595964   -1.8816621  0.056621422   -3.3595964    1.4779343   879185 
 3002000    0.9858326   -3.3584726   -1.8809006  0.055486779   -3.3584726     1.477572   879531 
 3003000   0.98629775   -3.3570648   -1.8793619  0.055181752   -3.3570648     1.477703   879868 
 3004000   0.98750692   -3.3569051   -1.8779553  0.054830615   -3.3569051    1.4789498   880204 
 3005000   0.98633853   -3.3552314   -1.8786051  0.053680305   -3.3552314    1.4766262   880546 
 3006000   0.98761567   -3.3543774    -1.876383  0.053781691   -3.3543774    1.4779944   880870 
 3007000     0.987506   -3.3528446    -1.875551  0.058484656   -3.3528446    1.4772936   881190 
 3008000   0.98876435   -3.3525074   -1.8739069  0.055717044   -3.3525074    1.4786005   881533 
 3009000   0.98892871   -3.3509935   -1.8727106  0.056999025   -3.3509935    1.4782828   881869 
 3010000   0.98942215   -3.3502597   -1.8718093  0.055395544   -3.3502597    1.4784504   882209 
 3011000    0.9895544    -3.348408   -1.8703664  0.055174005    -3.348408    1.4780416   882571 
 3012000   0.99047192   -3.3482654   -1.8693628  0.060076651   -3.3482654    1.4789026   882875 
 3013000   0.99136487   -3.3475073   -1.8678864  0.057228782   -3.3475073    1.4796208   883242 
 3014000   0.99226911   -3.3464326   -1.8660522  0.057108948   -3.3464326    1.4803804   883594 
 3015000   0.99329202    -3.346576   -1.8652697  0.054719408    -3.346576    1.4813064   883952 
 3016000    0.9945763   -3.3464202   -1.8637336  0.057483132   -3.3464202    1.4826866   884271 
 3017000   0.99444761   -3.3451599   -1.8632383  0.056597295   -3.3451599    1.4819216   884613 
 3018000     0.994842   -3.3427683   -1.8608169  0.059591827   -3.3427683    1.4819514   884946 
 3019000   0.99598235   -3.3435456   -1.8605273  0.059381726   -3.3435456    1.4830183   885323 
 3020000   0.99594797   -3.3429137   -1.8605008   0.05559192   -3.3429137    1.4824129   885654 
 3021000   0.99665726   -3.3421274   -1.8591678  0.060061286   -3.3421274    1.4829596   885958 
 3022000   0.99836355   -3.3434599   -1.8585246  0.063570399   -3.3434599    1.4849353   886294 
 3023000   0.99846466   -3.3417569   -1.8571972  0.062465791   -3.3417569    1.4845597   886608 
 3024000   0.99823203   -3.3398356   -1.8561974  0.063106041   -3.3398356    1.4836382   886952 
 3025000   0.99952043   -3.3399749   -1.8550128  0.060883181   -3.3399749    1.4849621   887305 
 3026000   0.99921083    -3.339512     -1.85552  0.061427604    -3.339512     1.483992   887610 
 3027000   0.99986792   -3.3386642   -1.8542382  0.064702097   -3.3386642    1.4844261   887934 
 3028000    1.0006959   -3.3383843   -1.8532708  0.062166872   -3.3383843    1.4851134   888258 
 3029000    1.0012775   -3.3377371   -1.8523174  0.064050544   -3.3377371    1.4854197   888591 
 3030000    1.0023946   -3.3378971   -1.8514056  0.063282727   -3.3378971    1.4864915   888941 
 3031000    1.0033067   -3.3373966   -1.8500645  0.061415538   -3.3373966     1.487332   889247 
 3032000    1.0037797   -3.3367538    -1.849266  0.066106979   -3.3367538    1.4874879   889573 
 3033000    1.0035012   -3.3352469   -1.8487199  0.066164791   -3.3352469     1.486527   889901 
 3034000    1.0060541   -3.3376282   -1.8478684  0.064662357   -3.3376282    1.4897598   890229 
 3035000     1.005904   -3.3366214   -1.8476242  0.066014685   -3.3366214    1.4889972   890552 
 3036000    1.0070029    -3.336228   -1.8461713  0.064995515    -3.336228    1.4900567   890891 
 3037000    1.0075171   -3.3359558   -1.8456218   0.06649104   -3.3359558     1.490334   891180 
 3038000    1.0081331   -3.3361789   -1.8454857   0.06624791   -3.3361789    1.4906932   891510 
 3039000    1.0078443   -3.3349753   -1.8451937   0.06597745   -3.3349753    1.4897816   891800 
 3040000    1.0084776   -3.3353128   -1.8451131  0.067706001   -3.3353128    1.4901997   892110 
 3041000    1.0077779   -3.3334724   -1.8448556  0.064867275   -3.3334724    1.4886169   892439 
 3042000    1.0079622   -3.3316591    -1.843307  0.068920724   -3.3316591    1.4883521   892761 
 3043000    1.0099611   -3.3335173    -1.842778  0.067443231   -3.3335173    1.4907392   893099 
 3044000    1.0094478   -3.3315567   -1.8421139    0.0669024   -3.3315567    1.4894428   893422 
 3045000    1.0098938   -3.3308741    -1.841305  0.066344587   -3.3308741    1.4895691   893741 
 3046000    1.0107623   -3.3296088   -1.8392923  0.066394193   -3.3296088    1.4903165   894061 
 3047000    1.0108721    -3.329615   -1.8396915  0.069738081    -3.329615    1.4899235   894394 
 3048000    1.0122332   -3.3301487   -1.8387661  0.066609314   -3.3301487    1.4913826   894722 
 3049000    1.0124884   -3.3295276    -1.838319  0.071165301   -3.3295276    1.4912086   895052 
 3050000    1.0134565   -3.3292472   -1.8371428  0.070259883   -3.3292472    1.4921044   895370 
 3051000    1.0146656   -3.3290309   -1.8356501  0.064235669   -3.3290309    1.4933808   895672 
 3052000    1.0154563   -3.3289955   -1.8349914  0.075081524   -3.3289955    1.4940041   895996 
 3053000    1.0153758   -3.3277752   -1.8343762  0.073242855   -3.3277752    1.4933991   896288 
 3054000    1.0148974   -3.3262415   -1.8340522  0.071993173   -3.3262415    1.4921892   896592 
 3055000    1.0145618   -3.3250776   -1.8339107  0.072125426   -3.3250776    1.4911669   896910 
 3056000    1.0167959   -3.3269979   -1.8330536   0.06800854   -3.3269979    1.4939442   897214 
 3057000     1.016601   -3.3252838   -1.8321652  0.072195469   -3.3252838    1.4931187   897538 
 3058000    1.0160531    -3.323445    -1.831678  0.072320987    -3.323445     1.491767   897867 
 3059000    1.0170667   -3.3237816   -1.8310119  0.073820076   -3.3237816    1.4927697   898159 
 3060000    1.0170739   -3.3227992   -1.8305622  0.071677377   -3.3227992     1.492237   898486 
 3061000    1.0177833   -3.3216758   -1.8289147  0.072413196   -3.3216758    1.4927611   898797 
 3062000    1.0186947   -3.3223517   -1.8287707  0.068310226   -3.3223517     1.493581   899108 
 3063000    1.0192556   -3.3210539   -1.8271323  0.072493191   -3.3210539    1.4939216   899398 
 3064000    1.0199531   -3.3208183   -1.8263695  0.068860152   -3.3208183    1.4944488   899696 
 3065000    1.0194016   -3.3197144   -1.8265798  0.071916862   -3.3197144    1.4931346   900001 
 3066000     1.020244   -3.3200479   -1.8261957  0.075560873   -3.3200479    1.4938522   900312 
 3067000    1.0207099   -3.3191609   -1.8251542   0.07138176   -3.3191609    1.4940066   900630 
 3068000    1.0217599   -3.3187522   -1.8237183  0.070974578   -3.3187522     1.495034   900937 
 3069000    1.0217546   -3.3177844   -1.8232293  0.077681559   -3.3177844    1.4945551   901221 
 3070000    1.0229848   -3.3170868   -1.8212137  0.072798997   -3.3170868    1.4958731   901511 
 3071000     1.023804   -3.3173374   -1.8207345  0.071758282   -3.3173374    1.4966029   901793 
 3072000    1.0233462   -3.3168894   -1.8214515  0.069886113   -3.3168894    1.4954379   902092 
 3073000    1.0234821   -3.3147736    -1.819641  0.073531441   -3.3147736    1.4951326   902396 
 3074000    1.0243096   -3.3142509   -1.8184067  0.077828212   -3.3142509    1.4958441   902696 
 3075000    1.0255866   -3.3158721   -1.8186707   0.06997972   -3.3158721    1.4972014   903002 
 3076000     1.026346   -3.3158216   -1.8180074  0.075288235   -3.3158216    1.4978142   903301 
 3077000     1.025962    -3.314796   -1.8180177  0.073072947    -3.314796    1.4967782   903588 
 3078000    1.0257268   -3.3133372   -1.8174171  0.073553149   -3.3133372    1.4959202   903899 
 3079000    1.0263416   -3.3134431   -1.8171544  0.072350293   -3.3134431    1.4962887   904218 
 3080000     1.027702    -3.312455   -1.8147245  0.074206041    -3.312455    1.4977305   904545 
 3081000    1.0285483   -3.3126637   -1.8141903  0.075954405   -3.3126637    1.4984734   904841 
 3082000    1.0291615   -3.3115462    -1.812683  0.074308037   -3.3115462    1.4988632   905145 
 3083000    1.0287488   -3.3099594   -1.8121506  0.078241059   -3.3099594    1.4978088   905419 
 3084000     1.029481   -3.3099925   -1.8116026  0.075360799   -3.3099925      1.49839   905712 
 3085000    1.0300315   -3.3098457   -1.8111277  0.077580118   -3.3098457     1.498718   905998 
 3086000    1.0318244   -3.3112499   -1.8104038  0.075461524   -3.3112499    1.5008461   906288 
 3087000    1.0314057   -3.3102157    -1.810422  0.075319561   -3.3102157    1.4997937   906556 
 3088000    1.0309932   -3.3086173   -1.8099079  0.078590394   -3.3086173    1.4987095   906849 
 3089000    1.0323038   -3.3088828   -1.8087826   0.07736525   -3.3088828    1.5001002   907160 
 3090000    1.0322712   -3.3074905   -1.8078823  0.079928158   -3.3074905    1.4996082   907429 
 3091000    1.0320527   -3.3058903   -1.8070836  0.079189359   -3.3058903    1.4988067   907722 
 3092000     1.032719   -3.3058214   -1.8065343  0.073884369   -3.3058214    1.4992871   908017 
 3093000     1.033899   -3.3066787   -1.8061064  0.072795672   -3.3066787    1.5005722   908276 
 3094000    1.0332926   -3.3051429   -1.8059493  0.074580106   -3.3051429    1.4991936   908578 
 3095000    1.0338027   -3.3060044   -1.8065179  0.075132875   -3.3060044    1.4994865   908849 
 3096000     1.034109   -3.3052729   -1.8058024  0.074135798   -3.3052729    1.4994705   909128 
 3097000    1.0348384   -3.3048341   -1.8047482  0.078260171   -3.3048341    1.5000859   909396 
 3098000    1.0347142   -3.3037019   -1.8042824  0.073359862   -3.3037019    1.4994195   909691 
 3099000    1.0357528   -3.3035731    -1.803127  0.074118335   -3.3035731    1.5004462   909981 
 3100000    1.0349113   -3.3018727    -1.803138  0.075730949   -3.3018727    1.4987347   910280 
 3101000    1.0359687   -3.3015472   -1.8017311  0.075291803   -3.3015472    1.4998162   910553 
 3102000    1.0358049   -3.3002061   -1.8010914  0.076274017   -3.3002061    1.4991147   910835 
 3103000    1.0374037    -3.301351   -1.8004101  0.077859367    -3.301351    1.5009409   911131 
 3104000    1.0388809   -3.3027764   -1.8001518  0.073671787   -3.3027764    1.5026246   911406 
 3105000    1.0382851    -3.300386   -1.7990645  0.079560789    -3.300386    1.5013214   911674 
 3106000    1.0390563   -3.3010638   -1.7991116  0.077903147   -3.3010638    1.5019523   911968 
 3107000    1.0398447   -3.3000156   -1.7974098  0.079724805   -3.3000156    1.5026058   912263 
 3108000    1.0400477    -3.300562   -1.7981373  0.077893721    -3.300562    1.5024247   912551 
 3109000    1.0409932   -3.3006464   -1.7973351  0.077027255   -3.3006464    1.5033113   912842 
 3110000    1.0407508   -3.2999117   -1.7973784  0.078443993   -3.2999117    1.5025333   913102 
 3111000    1.0415821   -3.3002932   -1.7970372  0.074596766   -3.3002932     1.503256   913392 
 3112000    1.0418257    -3.299317   -1.7961669  0.079169523    -3.299317    1.5031501   913670 
 3113000    1.0424993   -3.2986609   -1.7950246  0.080955345   -3.2986609    1.5036364   913965 
 3114000    1.0426473   -3.2983018    -1.794901   0.07688748   -3.2983018    1.5034008   914238 
 3115000    1.0434465   -3.2982767   -1.7942073  0.080126239   -3.2982767    1.5040695   914532 
 3116000    1.0435793   -3.2978436   -1.7939953  0.075971547   -3.2978436    1.5038483   914783 
 3117000    1.0434372    -3.297238   -1.7940366  0.079488227    -3.297238    1.5032014   915052 
 3118000    1.0437015   -3.2956621   -1.7924956  0.082084313   -3.2956621    1.5031665   915305 
 3119000    1.0455635   -3.2976585    -1.792251   0.08273384   -3.2976585    1.5054075   915573 
 3120000     1.047142    -3.298223    -1.791012  0.079397435    -3.298223     1.507211   915858 
 3121000    1.0465049   -3.2959677   -1.7902014  0.083379425   -3.2959677    1.5057663   916179 
 3122000    1.0474176   -3.2961512   -1.7895058  0.082621063   -3.2961512    1.5066454   916443 
 3123000    1.0480506   -3.2968981   -1.7897995  0.082878586   -3.2968981    1.5070987   916721 
 3124000    1.0494431   -3.2975019   -1.7888452  0.086694008   -3.2975019    1.5086567   916991 
 3125000    1.0499934   -3.2965342    -1.787501  0.085518665   -3.2965342    1.5090332   917243 
 3126000    1.0497691   -3.2943736   -1.7861182  0.088481688   -3.2943736    1.5082554   917520 
 3127000    1.0506358   -3.2951652    -1.786084  0.083689104   -3.2951652    1.5090811   917775 
 3128000     1.051762   -3.2958427   -1.7855684  0.088027001   -3.2958427    1.5102742   918033 
 3129000    1.0504487   -3.2940954   -1.7861406  0.086578875   -3.2940954    1.5079548   918297 
 3130000    1.0509883   -3.2938833    -1.785622  0.084310002   -3.2938833    1.5082613   918582 
 3131000    1.0516632   -3.2936614   -1.7849161  0.083157492   -3.2936614    1.5087453   918877 
 3132000    1.0514746   -3.2930388    -1.784986  0.086692725   -3.2930388    1.5080528   919134 
 3133000    1.0527839   -3.2927837   -1.7832964  0.084232403   -3.2927837    1.5094873   919404 
 3134000    1.0523108   -3.2917574   -1.7833504  0.084203155   -3.2917574     1.508407   919649 
 3135000     1.054077   -3.2931853   -1.7826621  0.082624838   -3.2931853    1.5105233   919902 
 3136000     1.053578   -3.2910481    -1.781701  0.084800378   -3.2910481    1.5093471   920183 
 3137000    1.0534479   -3.2894642   -1.7807741  0.084395366   -3.2894642    1.5086901   920470 
 3138000    1.0549273   -3.2908176   -1.7804813  0.081263733   -3.2908176    1.5103363   920758 
 3139000    1.0536694   -3.2879446   -1.7798449  0.086465406   -3.2879446    1.5080997   921024 
 3140000    1.0541588   -3.2878113   -1.7793731  0.087373431   -3.2878113    1.5084382   921245 
 3141000    1.0553676   -3.2875176   -1.7778117  0.085337162   -3.2875176    1.5097058   921527 
 3142000    1.0569093   -3.2882071   -1.7767764  0.083630745   -3.2882071    1.5114306   921820 
 3143000    1.0563682   -3.2873298   -1.7770908  0.084290245   -3.2873298    1.5102391   922075 
 3144000     1.056479   -3.2864213   -1.7764773  0.087116494   -3.2864213    1.5099439   922352 
 3145000    1.0572466   -3.2869061   -1.7763171   0.08410896   -3.2869061    1.5105889   922628 
 3146000    1.0572737   -3.2848461   -1.7745932   0.08588742   -3.2848461    1.5102528   922857 
 3147000    1.0578423   -3.2842803   -1.7737114  0.085398882   -3.2842803     1.510569   923160 
 3148000    1.0579872   -3.2840291   -1.7736441  0.084681102   -3.2840291    1.5103849   923399 
 3149000    1.0584947   -3.2829659   -1.7722982  0.084415767   -3.2829659    1.5106677   923669 
 3150000    1.0586471   -3.2827006   -1.7722324  0.085286219   -3.2827006    1.5104682   923924 
 3151000    1.0598098    -3.283908   -1.7721948  0.085039803    -3.283908    1.5117132   924177 
 3152000    1.0593757   -3.2822555   -1.7716192  0.084803001   -3.2822555    1.5106363   924457 
 3153000    1.0600697   -3.2827774   -1.7715634  0.086475892   -3.2827774     1.511214   924709 
 3154000    1.0594823   -3.2806788   -1.7707023  0.084199422   -3.2806788    1.5099765   924954 
 3155000     1.060169   -3.2801905   -1.7696501   0.08376971   -3.2801905    1.5105404   925208 
 3156000    1.0605168   -3.2789224   -1.7683224  0.085669056   -3.2789224    1.5106001   925475 
 3157000    1.0625257     -3.28143   -1.7684442  0.084254851     -3.28143    1.5129858   925766 
 3158000    1.0615838   -3.2793145   -1.7680649  0.087594964   -3.2793145    1.5112496   926008 
 3159000     1.062758   -3.2798885   -1.7674051  0.084177618   -3.2798885    1.5124834   926276 
 3160000    1.0632792   -3.2795395   -1.7667326  0.087593949   -3.2795395    1.5128069   926532 
 3161000    1.0652709   -3.2804971   -1.7652995  0.088768542   -3.2804971    1.5151976   926803 
 3162000    1.0646782   -3.2781914   -1.7642747  0.090249649   -3.2781914    1.5139167   927071 
 3163000    1.0666115    -3.280217   -1.7640139  0.085950292    -3.280217     1.516203   927354 
 3164000    1.0655914   -3.2771703   -1.7628485  0.093028773   -3.2771703    1.5143218   927618 
 3165000    1.0661227   -3.2771106   -1.7624272  0.091965476   -3.2771106    1.5146833   927859 
 3166000    1.0665956   -3.2784046    -1.763456  0.088997151   -3.2784046    1.5149485   928108 
 3167000    1.0670404    -3.277966   -1.7627922  0.088520331    -3.277966    1.5151738   928357 
 3168000    1.0672094   -3.2776246   -1.7626758  0.087208439   -3.2776246    1.5149488   928642 
 3169000    1.0672797   -3.2773603   -1.7627276  0.088018427   -3.2773603    1.5146326   928897 
 3170000    1.0678353   -3.2776447   -1.7626183  0.084828461   -3.2776447    1.5150264   929139 
 3171000    1.0674603   -3.2759858   -1.7619346   0.09016995   -3.2759858    1.5140512   929411 
 3172000    1.0685968   -3.2767258   -1.7615013  0.088198153   -3.2767258    1.5152245   929680 
 3173000    1.0689571   -3.2754603   -1.7602186  0.088378143   -3.2754603    1.5152417   929983 
 3174000    1.0693159   -3.2741929   -1.7588923  0.088032352   -3.2741929    1.5153006   930259 
 3175000    1.0694201   -3.2753835   -1.7603229  0.086779728   -3.2753835    1.5150606   930497 
 3176000    1.0712206   -3.2756898   -1.7585219  0.089463336   -3.2756898    1.5171679   930769 
 3177000    1.0716222   -3.2750948   -1.7577885  0.089245828   -3.2750948    1.5173063   931033 
 3178000    1.0722268   -3.2758259   -1.7580874  0.087498997   -3.2758259    1.5177385   931293 
 3179000    1.0706387   -3.2723841   -1.7572807  0.094421535   -3.2723841    1.5151034   931531 
 3180000    1.0733842   -3.2754359   -1.7568466  0.092068793   -3.2754359    1.5185892   931776 
 3181000    1.0722938   -3.2733231   -1.7566803  0.091139783   -3.2733231    1.5166428   932024 
 3182000    1.0735392   -3.2733315   -1.7553994  0.090564555   -3.2733315    1.5179321   932314 
 3183000    1.0743232   -3.2741005   -1.7554899  0.092428144   -3.2741005    1.5186106   932578 
 3184000    1.0744134   -3.2729577    -1.754612  0.090560167   -3.2729577    1.5183457   932819 
 3185000    1.0744003   -3.2721936   -1.7542587  0.092754154   -3.2721936     1.517935   933060 
 3186000    1.0759811   -3.2731546   -1.7533999  0.089232734   -3.2731546    1.5197547   933314 
 3187000    1.0753769   -3.2719958   -1.7535354  0.091322184   -3.2719958    1.5184604   933585 
 3188000    1.0765851   -3.2724974   -1.7527509  0.092919382   -3.2724974    1.5197465   933843 
 3189000    1.0767714   -3.2713649   -1.7517135  0.094121061   -3.2713649    1.5196514   934063 
 3190000    1.0780765   -3.2725024   -1.7514114   0.09398045   -3.2725024     1.521091   934310 
 3191000    1.0773871    -3.271095   -1.7513719  0.094920666    -3.271095    1.5197231   934553 
 3192000    1.0777527   -3.2706939   -1.7508243  0.092502842   -3.2706939    1.5198696   934780 
 3193000    1.0776443   -3.2690832   -1.7497515  0.093149205   -3.2690832    1.5193316   935017 
 3194000     1.078303   -3.2693472   -1.7494982  0.097406349   -3.2693472     1.519849   935270 
 3195000    1.0793351   -3.2701126    -1.749191  0.090318969   -3.2701126    1.5209216   935505 
 3196000    1.0794255   -3.2689529   -1.7483283  0.093184134   -3.2689529    1.5206247   935766 
 3197000    1.0801096   -3.2683412   -1.7471364   0.09042817   -3.2683412    1.5212047   936002 
 3198000    1.0802143   -3.2672766   -1.7463046  0.095876859   -3.2672766    1.5209719   936236 
 3199000    1.0796782   -3.2668566   -1.7470275  0.092766878   -3.2668566    1.5198291   936475 
 3200000    1.0793504   -3.2654329   -1.7464674  0.092551558   -3.2654329    1.5189655   936723 
 3201000    1.0806358   -3.2659668   -1.7455496  0.096988105   -3.2659668    1.5204173   936943 
 3202000    1.0799459   -3.2645976   -1.7455157  0.092584871   -3.2645976    1.5190818   937168 
 3203000    1.0813723   -3.2656692   -1.7449914  0.095087732   -3.2656692    1.5206778   937421 
 3204000    1.0809169   -3.2637655   -1.7441528  0.091714628   -3.2637655    1.5196127   937683 
 3205000    1.0811457   -3.2631691   -1.7436303   0.09290933   -3.2631691    1.5195389   937927 
 3206000     1.082082   -3.2632319   -1.7427776  0.095489946   -3.2632319    1.5204544   938174 
 3207000      1.08302   -3.2634377   -1.7420706  0.094400732   -3.2634377    1.5213671   938424 
 3208000    1.0842998   -3.2644388    -1.741665  0.091422274   -3.2644388    1.5227738   938665 
 3209000    1.0841149   -3.2632077   -1.7410715  0.096442235   -3.2632077    1.5221362   938898 
 3210000     1.083938   -3.2620704   -1.7405423  0.097494851   -3.2620704    1.5215281   939120 
 3211000    1.0866442   -3.2640496   -1.7391271  0.093786637   -3.2640496    1.5249225   939369 
 3212000    1.0858451   -3.2632518    -1.739827  0.095052784   -3.2632518    1.5234248   939601 
 3213000    1.0859931   -3.2610285   -1.7377997  0.098776715   -3.2610285    1.5232288   939850 
 3214000    1.0869475   -3.2617157   -1.7375163  0.096027289   -3.2617157    1.5241994   940077 
 3215000    1.0868746   -3.2611164   -1.7374504   0.09325483   -3.2611164     1.523666   940343 
 3216000    1.0868477   -3.2607859   -1.7375999  0.096588539   -3.2607859     1.523186   940616 
 3217000    1.0869076   -3.2610571   -1.7381707  0.098012631   -3.2610571    1.5228863   940853 
 3218000    1.0882965   -3.2605608   -1.7361076   0.09574638   -3.2605608    1.5244532   941087 
 3219000    1.0892718   -3.2612016   -1.7357746  0.097102385   -3.2612016     1.525427   941329 
 3220000    1.0884774   -3.2594643   -1.7355059  0.094327112   -3.2594643    1.5239585   941549 
 3221000    1.0894072   -3.2597783   -1.7349133  0.098025871   -3.2597783     1.524865   941793 
 3222000     1.089963   -3.2599947   -1.7347436   0.09884344   -3.2599947    1.5252511   942035 
 3223000    1.0902644   -3.2594269   -1.7341377   0.10044756   -3.2594269    1.5252892   942272 
 3224000    1.0900631   -3.2583939   -1.7337764  0.099170789   -3.2583939    1.5246175   942513 
 3225000    1.0909489   -3.2589747   -1.7334872  0.097939804   -3.2589747    1.5254875   942741 
 3226000    1.0926843   -3.2600966   -1.7325422  0.099017163   -3.2600966    1.5275543   942963 
 3227000    1.0917128   -3.2576998   -1.7318643   0.10184704   -3.2576998    1.5258355   943186 
 3228000     1.091722   -3.2577202    -1.732252  0.097044473   -3.2577202    1.5254682   943421 
 3229000    1.0922302   -3.2579178   -1.7321051  0.097738781   -3.2579178    1.5258127   943647 
 3230000    1.0917972   -3.2565971   -1.7317916  0.098854507   -3.2565971    1.5248055   943896 
 3231000    1.0922961   -3.2572079   -1.7320821  0.097595731   -3.2572079    1.5251258   944129 
 3232000      1.09282    -3.256913   -1.7314468  0.093933087    -3.256913    1.5254663   944371 
 3233000    1.0926664    -3.256776   -1.7319552  0.097782036    -3.256776    1.5248208   944638 
 3234000    1.0931481   -3.2558876   -1.7307885  0.092124056   -3.2558876    1.5250991   944882 
 3235000    1.0942988   -3.2565144    -1.730175  0.096719581   -3.2565144    1.5263394   945108 
 3236000    1.0944562   -3.2552092   -1.7290282   0.10062113   -3.2552092     1.526181   945342 
 3237000    1.0959483   -3.2564004   -1.7285216   0.10103716   -3.2564004    1.5278787   945579 
 3238000    1.0957805   -3.2556798   -1.7284097  0.097502659   -3.2556798      1.52727   945811 
 3239000    1.0972129   -3.2569147   -1.7280556  0.099381553   -3.2569147    1.5288591   946063 
 3240000    1.0973356   -3.2554612   -1.7268107  0.096765655   -3.2554612    1.5286504   946298 
 3241000    1.0970197   -3.2543655    -1.726512   0.10241004   -3.2543655    1.5278535   946519 
 3242000    1.0986673   -3.2547486   -1.7250239   0.10001701   -3.2547486    1.5297247   946781 
 3243000    1.0988074    -3.254597   -1.7250618  0.099667415    -3.254597    1.5295353   947019 
 3244000    1.0995051   -3.2542956    -1.724185  0.098624814   -3.2542956    1.5301106   947264 
 3245000    1.1000016   -3.2541687   -1.7237758  0.097796018   -3.2541687    1.5303929   947517 
 3246000    1.1001377    -3.253998   -1.7237548  0.098586608    -3.253998    1.5302431   947727 
 3247000    1.0992606   -3.2517964   -1.7231814  0.099705182   -3.2517964     1.528615   947980 
 3248000     1.099759   -3.2520593    -1.723111   0.10137153   -3.2520593    1.5289483   948203 
 3249000    1.0999277    -3.251831   -1.7229996  0.098963367    -3.251831    1.5288315   948421 
 3250000     1.101346   -3.2527482    -1.722331  0.095527788   -3.2527482    1.5304172   948660 
 3251000    1.1011021     -3.25155   -1.7218283  0.097618658     -3.25155    1.5297218   948881 
 3252000    1.1019186   -3.2518085   -1.7213218  0.098391315   -3.2518085    1.5304868   949110 
 3253000    1.1013888   -3.2497472   -1.7203846  0.097568551   -3.2497472    1.5293626   949351 
 3254000    1.1032339   -3.2514636   -1.7199357  0.094187662   -3.2514636    1.5315279   949597 
 3255000    1.1012568   -3.2492396   -1.7208153   0.10099026   -3.2492396    1.5284243   949820 
 3256000    1.1024501   -3.2488098   -1.7191175  0.098229516   -3.2488098    1.5296923   950061 
 3257000    1.1024834   -3.2481131    -1.718703   0.10248663   -3.2481131    1.5294101   950265 
 3258000    1.1034317    -3.248921   -1.7185481   0.10003593    -3.248921    1.5303729   950484 
 3259000    1.1029084   -3.2469006   -1.7175865   0.10067084   -3.2469006    1.5293141   950691 
 3260000    1.1042633   -3.2474008   -1.7166073  0.098289448   -3.2474008    1.5307935   950939 
 3261000    1.1060959   -3.2484181   -1.7154662   0.10272096   -3.2484181    1.5329519   951176 
 3262000    1.1049089   -3.2471199   -1.7161672   0.10249065   -3.2471199    1.5309527   951396 
 3263000    1.1058671    -3.248136   -1.7162082   0.10196142    -3.248136    1.5319277   951615 
 3264000    1.1050037   -3.2473118   -1.7168841  0.098152202   -3.2473118    1.5304277   951804 
 3265000    1.1062819    -3.247221   -1.7153818  0.098958431    -3.247221    1.5318392   952027 
 3266000    1.1081718   -3.2479688   -1.7139092   0.10339675   -3.2479688    1.5340596   952273 
 3267000    1.1060285   -3.2454229    -1.714716   0.10472478   -3.2454229    1.5307069   952513 
 3268000    1.1057686   -3.2450585   -1.7150904   0.10313913   -3.2450585    1.5299681   952749 
 3269000    1.1065583   -3.2452565    -1.714562   0.10109837   -3.2452565    1.5306945   952977 
 3270000    1.1073915   -3.2452952   -1.7138226  0.094421682   -3.2452952    1.5314726   953210 
 3271000    1.1070126   -3.2439708   -1.7134141   0.10181676   -3.2439708    1.5305568   953454 
 3272000    1.1097713   -3.2469627   -1.7129441   0.10121533   -3.2469627    1.5340186   953673 
 3273000    1.1095204   -3.2451606   -1.7118457     0.100681   -3.2451606    1.5333149   953895 
 3274000    1.1087538   -3.2432849   -1.7113843   0.10440347   -3.2432849    1.5319006   954116 
 3275000    1.1101678   -3.2458216    -1.712329   0.10136396   -3.2458216    1.5334926   954341 
 3276000    1.1107935   -3.2455653   -1.7115669   0.10198927   -3.2455653    1.5339984   954564 
 3277000    1.1100131   -3.2437715   -1.7112056   0.10438673   -3.2437715    1.5325659   954785 
 3278000    1.1107857   -3.2437837   -1.7105028   0.10460135   -3.2437837    1.5332809   955004 
 3279000     1.111772    -3.244328   -1.7100279  0.098610777    -3.244328    1.5343002   955217 
 3280000    1.1113838   -3.2439265   -1.7105248    0.1025282   -3.2439265    1.5334016   955443 
 3281000    1.1123151   -3.2446089   -1.7102741   0.10510516   -3.2446089    1.5343348   955662 
 3282000    1.1126575    -3.244591   -1.7101035   0.10257966    -3.244591    1.5344876   955861 
 3283000    1.1122557   -3.2436514   -1.7100708   0.10298629   -3.2436514    1.5335806   956081 
 3284000    1.1126669   -3.2432538   -1.7094624   0.10296347   -3.2432538    1.5337914   956303 
 3285000    1.1127825   -3.2432668   -1.7097074   0.10415412   -3.2432668    1.5335593   956547 
 3286000    1.1133794   -3.2436716     -1.70962   0.10343041   -3.2436716    1.5340516   956753 
 3287000    1.1146484   -3.2433145   -1.7078756   0.10268822   -3.2433145     1.535439   956978 
 3288000    1.1155834   -3.2444571   -1.7080352  0.099825581   -3.2444571    1.5364219   957168 
 3289000    1.1159113   -3.2442701   -1.7077369   0.10252056   -3.2442701    1.5365333   957380 
 3290000    1.1165783   -3.2441245   -1.7070389   0.10700339   -3.2441245    1.5370856   957608 
 3291000    1.1158035   -3.2427208   -1.7070627   0.10607291   -3.2427208    1.5356581   957833 
 3292000    1.1161941   -3.2431378   -1.7072435   0.10377877   -3.2431378    1.5358943   958021 
 3293000    1.1170211   -3.2432726   -1.7066206   0.10646841   -3.2432726    1.5366521   958258 
 3294000    1.1172961   -3.2435603   -1.7068779   0.10183075   -3.2435603    1.5366824   958475 
 3295000    1.1178651   -3.2434292    -1.706325   0.10718685   -3.2434292    1.5371042   958700 
 3296000    1.1170622   -3.2421379   -1.7064789   0.10515182   -3.2421379     1.535659   958913 
 3297000    1.1179313   -3.2427975   -1.7062755    0.1061127   -3.2427975     1.536522   959120 
 3298000    1.1176453   -3.2417869    -1.706023   0.10864252   -3.2417869    1.5357639   959348 
 3299000    1.1180657   -3.2419137   -1.7059148   0.10566565   -3.2419137    1.5359989   959562 
 3300000    1.1181147   -3.2413684   -1.7056415   0.10325375   -3.2413684    1.5357269   959774 
 3301000    1.1193982    -3.242615   -1.7055271   0.10628948    -3.242615    1.5370878   960025 
 3302000    1.1194317   -3.2415271   -1.7047886   0.10207147   -3.2415271    1.5367385   960272 
 3303000    1.1188035   -3.2406638   -1.7051268   0.10241288   -3.2406638     1.535537   960484 
 3304000     1.119737   -3.2414369   -1.7050026   0.10534647   -3.2414369    1.5364343   960724 
 3305000    1.1186619   -3.2396046   -1.7050128   0.10497758   -3.2396046    1.5345918   960954 
 3306000     1.118887   -3.2393338   -1.7047908   0.10455636   -3.2393338    1.5345429   961178 
 3307000     1.119968   -3.2396773   -1.7039778   0.10349141   -3.2396773    1.5356995   961382 
 3308000    1.1213691   -3.2407831   -1.7034885   0.10443985   -3.2407831    1.5372946   961586 
 3309000    1.1214418   -3.2401558   -1.7031132   0.10324026   -3.2401558    1.5370426   961806 
 3310000    1.1209955   -3.2387007   -1.7026084   0.10883426   -3.2387007    1.5360923   962018 
 3311000    1.1216824   -3.2388177   -1.7021548    0.1017982   -3.2388177    1.5366629   962250 
 3312000    1.1234949   -3.2398258   -1.7009932   0.10861222   -3.2398258    1.5388326   962446 
 3313000    1.1237273   -3.2393595   -1.7005348   0.10548864   -3.2393595    1.5388247   962650 
 3314000    1.1248501   -3.2395215   -1.6995624   0.10853957   -3.2395215    1.5399591   962902 
 3315000    1.1258881   -3.2395044   -1.6984491    0.1100133   -3.2395044    1.5410553   963105 
 3316000     1.124971   -3.2381721   -1.6987366   0.10669968   -3.2381721    1.5394355   963333 
 3317000    1.1247504   -3.2380295   -1.6991882   0.10623579   -3.2380295    1.5388413   963516 
 3318000    1.1260528   -3.2389141   -1.6986218   0.10688074   -3.2389141    1.5402923   963723 
 3319000    1.1262633   -3.2383615   -1.6981281   0.11274559   -3.2383615    1.5402334   963940 
 3320000    1.1274046   -3.2383795   -1.6969578   0.10875936   -3.2383795    1.5414216   964173 
 3321000     1.126918   -3.2372734   -1.6968526   0.11189297   -3.2372734    1.5404208   964383 
 3322000    1.1280885   -3.2390053   -1.6973408   0.10187507   -3.2390053    1.5416644   964606 
 3323000    1.1269011   -3.2372343   -1.6974895   0.10444937   -3.2372343    1.5397448   964792 
 3324000    1.1269145   -3.2363329   -1.6969353   0.10935414   -3.2363329    1.5393977   965021 
 3325000    1.1283996   -3.2376792   -1.6965881   0.10746344   -3.2376792    1.5410911   965231 
 3326000    1.1272296   -3.2357342   -1.6965568   0.10769016   -3.2357342    1.5391774   965429 
 3327000    1.1277852   -3.2358037   -1.6961962    0.1051962   -3.2358037    1.5396075   965635 
 3328000    1.1283099   -3.2357602   -1.6958254   0.10869017   -3.2357602    1.5399347   965879 
 3329000    1.1292951   -3.2361476   -1.6952209   0.10538486   -3.2361476    1.5409267   966100 
 3330000    1.1292485   -3.2359423   -1.6954125   0.10933271   -3.2359423    1.5405299   966309 
 3331000    1.1293284   -3.2355976    -1.695311   0.10916606   -3.2355976    1.5402866   966530 
 3332000     1.129223   -3.2342796   -1.6944618   0.10924674   -3.2342796    1.5398178   966734 
 3333000    1.1295081   -3.2343865   -1.6945749   0.10841386   -3.2343865    1.5398116   966982 
 3334000    1.1295355   -3.2338772   -1.6943579   0.10608028   -3.2338772    1.5395193   967189 
 3335000    1.1309135   -3.2348117   -1.6937137   0.10538651   -3.2348117    1.5410979   967377 
 3336000    1.1312042   -3.2346703   -1.6934995   0.10586328   -3.2346703    1.5411708   967580 
 3337000    1.1312689   -3.2335888   -1.6926165    0.1089947   -3.2335888    1.5409722   967760 
 3338000    1.1330851   -3.2356603   -1.6925186   0.10590587   -3.2356603    1.5431416   967951 
 3339000    1.1332786    -3.234906   -1.6918356   0.10711277    -3.234906    1.5430704   968161 
 3340000    1.1327429   -3.2331773   -1.6911756   0.11289911   -3.2331773    1.5420017   968374 
 3341000    1.1334727   -3.2328978   -1.6902722   0.11229127   -3.2328978    1.5426256   968606 
 3342000    1.1337667   -3.2334275    -1.690725   0.11260507   -3.2334275    1.5427024   968809 
 3343000    1.1335699    -3.232733   -1.6905483    0.1115319    -3.232733    1.5421847   968966 
 3344000    1.1354735   -3.2346828   -1.6901856   0.11169868   -3.2346828    1.5444972   969140 
 3345000    1.1348259    -3.233295   -1.6900435   0.10737898    -3.233295    1.5432516   969369 
 3346000    1.1349277   -3.2336876   -1.6905889   0.10888732   -3.2336876    1.5430988   969552 
 3347000    1.1349418   -3.2330041   -1.6902123   0.11403946   -3.2330041    1.5427917   969757 
 3348000    1.1347669   -3.2322373   -1.6900188   0.11121497   -3.2322373    1.5422185   969968 
 3349000    1.1368685   -3.2337324   -1.6889987   0.11131655   -3.2337324    1.5447337   970182 
 3350000    1.1372192   -3.2334065   -1.6885241   0.11130763   -3.2334065    1.5448823   970388 
 3351000    1.1364403   -3.2313042   -1.6878473   0.11284612   -3.2313042    1.5434568   970619 
 3352000    1.1380798   -3.2329602    -1.687557    0.1080256   -3.2329602    1.5454033   970795 
 3353000    1.1379031   -3.2323634   -1.6875358    0.1067193   -3.2323634    1.5448276   971006 
 3354000    1.1379862   -3.2316068   -1.6869656   0.10834269   -3.2316068    1.5446413   971194 
 3355000    1.1380978   -3.2306546   -1.6861576   0.11096522   -3.2306546    1.5444969   971380 
 3356000    1.1386078   -3.2316322   -1.6867772    0.1120841   -3.2316322    1.5448551   971590 
 3357000    1.1390792   -3.2318553   -1.6866836   0.10549782   -3.2318553    1.5451718   971793 
 3358000    1.1384619   -3.2310829   -1.6870836   0.10993677   -3.2310829    1.5439993   972004 
 3359000    1.1396893   -3.2319497   -1.6866165   0.10329662   -3.2319497    1.5453332   972212 
 3360000    1.1389328   -3.2302373   -1.6862522    0.1101863   -3.2302373    1.5439851   972415 
 3361000    1.1397306   -3.2311021   -1.6863342   0.10595074   -3.2311021    1.5447679   972603 
 3362000    1.1401945   -3.2300626   -1.6849805   0.11130826   -3.2300626     1.545082   972801 
 3363000    1.1392453   -3.2278852   -1.6843797    0.1114594   -3.2278852    1.5435055   972984 
 3364000    1.1408869   -3.2293765   -1.6839773   0.10866252   -3.2293765    1.5453992   973192 
 3365000    1.1416091   -3.2296286   -1.6835736   0.11057694   -3.2296286     1.546055   973395 
 3366000    1.1405551    -3.228191    -1.683895   0.11190153    -3.228191     1.544296   973604 
 3367000    1.1406396   -3.2275861   -1.6835025    0.1119154   -3.2275861    1.5440837   973810 
 3368000     1.142037   -3.2283328   -1.6826764   0.11104827   -3.2283328    1.5456564   974011 
 3369000     1.141893   -3.2275365   -1.6824114   0.11176917   -3.2275365    1.5451251   974223 
 3370000     1.143519    -3.228433   -1.6814348   0.11608306    -3.228433    1.5469981   974429 
 3371000    1.1441721   -3.2281469   -1.6805908   0.11020683   -3.2281469    1.5475561   974634 
 3372000    1.1445359   -3.2284099   -1.6806554   0.10982643   -3.2284099    1.5477545   974819 
 3373000    1.1447672   -3.2281827   -1.6804346   0.11125374   -3.2281827    1.5477481   975020 
 3374000    1.1451823   -3.2279134   -1.6799534   0.11039002   -3.2279134      1.54796   975240 
 3375000    1.1470961   -3.2290026   -1.6787863   0.10804262   -3.2290026    1.5502164   975448 
 3376000    1.1455132   -3.2267098   -1.6789341   0.11241919   -3.2267098    1.5477757   975638 
 3377000    1.1454145   -3.2256751   -1.6783865   0.11286083   -3.2256751    1.5472886   975861 
 3378000     1.146124   -3.2267547   -1.6788233   0.11329536   -3.2267547    1.5479314   976060 
 3379000    1.1456457   -3.2258975   -1.6789164    0.1159412   -3.2258975    1.5469812   976252 
 3380000    1.1472495   -3.2272201   -1.6783795   0.11081478   -3.2272201    1.5488406   976445 
 3381000    1.1468607   -3.2260851   -1.6780532   0.11652928   -3.2260851    1.5480319   976624 
 3382000    1.1467223   -3.2264194    -1.678904   0.11015341   -3.2264194    1.5475155   976832 
 3383000    1.1474725   -3.2267209   -1.6785037   0.11354284   -3.2267209    1.5482172   977028 
 3384000    1.1470631   -3.2256132   -1.6783016    0.1097905   -3.2256132    1.5473117   977251 
 3385000     1.148193   -3.2260023   -1.6774787    0.1130248   -3.2260023    1.5485237   977448 
 3386000    1.1486748   -3.2257236   -1.6768529   0.11529355   -3.2257236    1.5488708   977639 
 3387000    1.1499191   -3.2264366   -1.6762163   0.11511362   -3.2264366    1.5502204   977846 
 3388000    1.1494529   -3.2251787   -1.6758513   0.11779288   -3.2251787    1.5493274   978013 
 3389000    1.1503613   -3.2261595   -1.6759153   0.11711126   -3.2261595    1.5502442   978207 
 3390000    1.1507419   -3.2254602   -1.6750295   0.11565633   -3.2254602    1.5504306   978413 
 3391000    1.1519439   -3.2265668   -1.6748149   0.11642476   -3.2265668     1.551752   978601 
 3392000     1.151417   -3.2263814    -1.675653   0.11558155   -3.2263814    1.5507284   978799 
 3393000    1.1517863   -3.2257255   -1.6748467   0.11540611   -3.2257255    1.5508788   979018 
 3394000    1.1523304   -3.2271525     -1.67585   0.11233107   -3.2271525    1.5513025   979213 
 3395000    1.1532628   -3.2274139    -1.675205   0.11269252   -3.2274139    1.5522089   979433 
 3396000    1.1516611    -3.224928   -1.6751944     0.117162    -3.224928    1.5497336   979635 
 3397000    1.1523508    -3.225103   -1.6747564   0.11983861    -3.225103    1.5503467   979834 
 3398000    1.1531652   -3.2255685   -1.6744175   0.11386608   -3.2255685     1.551151   980018 
 3399000    1.1533564     -3.22537   -1.6742418   0.11641098     -3.22537    1.5511281   980195 
 3400000    1.1530465   -3.2242194   -1.6738607   0.11725364   -3.2242194    1.5503587   980418 
 3401000    1.1538344   -3.2249807   -1.6738759   0.11756838   -3.2249807    1.5511048   980616 
 3402000    1.1540949   -3.2244448   -1.6732682   0.11397643   -3.2244448    1.5511766   980792 
 3403000    1.1541328   -3.2245338    -1.673629   0.11730657   -3.2245338    1.5509049   980996 
 3404000    1.1549513   -3.2250754   -1.6733886   0.11354157   -3.2250754    1.5516868   981197 
 3405000    1.1552103   -3.2249817   -1.6732394   0.11713028   -3.2249817    1.5517423   981382 
 3406000    1.1561772   -3.2256631   -1.6728736   0.11670569   -3.2256631    1.5527895   981541 
 3407000    1.1556628   -3.2243561   -1.6726022   0.11977933   -3.2243561     1.551754   981759 
 3408000    1.1557122   -3.2247122   -1.6732048   0.11631087   -3.2247122    1.5515074   981957 
 3409000    1.1564373   -3.2247839   -1.6726144   0.11654656   -3.2247839    1.5521695   982154 
 3410000    1.1575078   -3.2257194     -1.67242   0.11845709   -3.2257194    1.5532994   982348 
 3411000    1.1574526   -3.2248083   -1.6718958   0.11936271   -3.2248083    1.5529124   982546 
 3412000    1.1581608    -3.225266   -1.6717117   0.11719728    -3.225266    1.5535542   982741 
 3413000    1.1588149   -3.2245872   -1.6704877   0.11645251   -3.2245872    1.5540995   982951 
 3414000    1.1597862   -3.2254709   -1.6704168   0.11735149   -3.2254709    1.5550541   983171 
 3415000    1.1591393   -3.2237772   -1.6698891    0.1204819   -3.2237772     1.553888   983360 
 3416000     1.159852   -3.2248611   -1.6703133   0.11383037   -3.2248611    1.5545479   983547 
 3417000     1.159597   -3.2239143    -1.670021   0.11844606   -3.2239143    1.5538933   983745 
 3418000    1.1601668   -3.2227597   -1.6683748   0.12380096   -3.2227597    1.5543849   983917 
 3419000    1.1613019   -3.2239992   -1.6683764   0.12138717   -3.2239992    1.5556228   984096 
 3420000    1.1615482   -3.2233494   -1.6676655   0.11750722   -3.2233494     1.555684   984266 
 3421000    1.1616869   -3.2235621   -1.6679879   0.11618012   -3.2235621    1.5555742   984453 
 3422000    1.1606674   -3.2224183   -1.6685108    0.1181789   -3.2224183    1.5539075   984644 
 3423000    1.1611069   -3.2226338   -1.6684503   0.11899435   -3.2226338    1.5541834   984842 
 3424000    1.1609585   -3.2220943   -1.6684298    0.1177839   -3.2220943    1.5536645   985045 
 3425000    1.1615503   -3.2234868   -1.6693016   0.11435098   -3.2234868    1.5541852   985217 
 3426000    1.1613313   -3.2223773   -1.6688163    0.1187349   -3.2223773    1.5535609   985427 
 3427000    1.1623528    -3.223424   -1.6687726   0.11574018    -3.223424    1.5546514   985602 
 3428000    1.1634639   -3.2237935   -1.6679622   0.11521913   -3.2237935    1.5558313   985796 
 3429000    1.1631632    -3.222923   -1.6677873   0.11357694    -3.222923    1.5551357   985982 
 3430000    1.1624535   -3.2214613   -1.6675692   0.11828119   -3.2214613    1.5538921   986169 
 3431000    1.1630142   -3.2216967   -1.6673718   0.11791043   -3.2216967    1.5543248   986370 
 3432000    1.1639101   -3.2221532   -1.6668865   0.11683941   -3.2221532    1.5552667   986532 
 3433000    1.1641802   -3.2223168   -1.6669855   0.11817581   -3.2223168    1.5553312   986720 
 3434000    1.1652152   -3.2233047   -1.6668636   0.11628587   -3.2233047    1.5564411   986893 
 3435000     1.164533   -3.2223853   -1.6671313   0.12099178   -3.2223853    1.5552541   987068 
 3436000    1.1644077   -3.2214875   -1.6667032   0.11607621   -3.2214875    1.5547843   987260 
 3437000    1.1657099   -3.2229426   -1.6667127   0.11715683   -3.2229426    1.5562299   987446 
 3438000    1.1669309   -3.2246969   -1.6671303   0.11835794   -3.2246969    1.5575666   987632 
 3439000    1.1655168   -3.2220301   -1.6666691   0.12163383   -3.2220301     1.555361   987834 
 3440000    1.1662801   -3.2216335   -1.6655516   0.11953784   -3.2216335    1.5560819   988023 
 3441000    1.1671592   -3.2226464   -1.6656831   0.11931349   -3.2226464    1.5569633   988208 
 3442000    1.1686861   -3.2235947   -1.6648896   0.12361731   -3.2235947    1.5587051   988395 
 3443000    1.1690845   -3.2234526   -1.6645126   0.12529778   -3.2234526    1.5589399   988583 
 3444000    1.1704568   -3.2245416   -1.6640511   0.12189111   -3.2245416    1.5604905   988760 
 3445000    1.1698188   -3.2238026    -1.664423   0.12675886   -3.2238026    1.5593796   988925 
 3446000    1.1692053    -3.222144    -1.663891   0.12432829    -3.222144     1.558253   989121 
 3447000    1.1703211   -3.2241301   -1.6646849   0.12047276   -3.2241301    1.5594452   989308 
 3448000    1.1698432   -3.2230368   -1.6645338   0.12442313   -3.2230368    1.5585029   989502 
 3449000    1.1700109   -3.2233419   -1.6648991    0.1234233   -3.2233419    1.5584428   989682 
 3450000     1.170149   -3.2224913   -1.6641527   0.12147765   -3.2224913    1.5583386   989865 
 3451000    1.1711256   -3.2239025   -1.6645123   0.12384876   -3.2239025    1.5593903   990023 
 3452000    1.1713577   -3.2229519   -1.6635551   0.12265328   -3.2229519    1.5593968   990215 
 3453000    1.1704543   -3.2219805   -1.6640663   0.12579888   -3.2219805    1.5579142   990393 
 3454000    1.1713014   -3.2226208   -1.6638813   0.12290501   -3.2226208    1.5587395   990585 
 3455000    1.1701238     -3.22026    -1.663361   0.12550961     -3.22026     1.556899   990759 
 3456000    1.1710763   -3.2204246   -1.6625838   0.12505876   -3.2204246    1.5578408   990966 
 3457000    1.1722342   -3.2216008   -1.6625359   0.12158851   -3.2216008    1.5590649   991167 
 3458000     1.172121   -3.2205516   -1.6619077   0.12394888   -3.2205516    1.5586439   991339 
 3459000    1.1732927   -3.2208854   -1.6610013   0.12699068   -3.2208854    1.5598841   991541 
 3460000    1.1720285   -3.2197095   -1.6617796   0.12118421   -3.2197095      1.55793   991715 
 3461000    1.1743043   -3.2219749   -1.6613032   0.11937232   -3.2219749    1.5606718   991895 
 3462000    1.1743565   -3.2218462   -1.6613646   0.11807399   -3.2218462    1.5604816   992060 
 3463000    1.1748749   -3.2208098   -1.6599225    0.1222773   -3.2208098    1.5608873   992240 
 3464000    1.1742627   -3.2192529   -1.6594918   0.12251805   -3.2192529    1.5597611   992439 
 3465000    1.1755323   -3.2200634   -1.6588819   0.12158902   -3.2200634    1.5611815   992608 
 3466000      1.17511   -3.2191072   -1.6587065   0.12223466   -3.2191072    1.5604007   992748 
 3467000    1.1763721   -3.2196985   -1.6579161   0.12236952   -3.2196985    1.5617824   992935 
 3468000    1.1759141   -3.2189447   -1.6580738    0.1196417   -3.2189447    1.5608709   993128 
 3469000    1.1768841   -3.2191111   -1.6572263     0.119336   -3.2191111    1.5618849   993302 
 3470000    1.1759494   -3.2178703   -1.6575259   0.12313731   -3.2178703    1.5603443   993493 
 3471000    1.1773267   -3.2184861   -1.6566129   0.12432393   -3.2184861    1.5618732   993683 
 3472000    1.1770232   -3.2184787   -1.6572941   0.12317496   -3.2184787    1.5611846   993865 
 3473000    1.1776243    -3.218692   -1.6569772   0.12380714    -3.218692    1.5617148   994035 
 3474000    1.1781441   -3.2191154   -1.6569926   0.11827191   -3.2191154    1.5621228   994214 
 3475000    1.1775789   -3.2185155   -1.6574185   0.12226831   -3.2185155     1.561097   994390 
 3476000    1.1781662   -3.2189596   -1.6573525   0.12151178   -3.2189596    1.5616071   994561 
 3477000    1.1774108   -3.2170301   -1.6566927   0.12369144   -3.2170301    1.5603375   994732 
 3478000    1.1783685   -3.2179283   -1.6565963   0.12607183   -3.2179283     1.561332   994907 
 3479000    1.1790445    -3.218458   -1.6564894   0.12440338    -3.218458    1.5619686   995072 
 3480000    1.1795095   -3.2183017   -1.6559635   0.12195839   -3.2183017    1.5623381   995229 
 3481000    1.1803715   -3.2188622   -1.6556445   0.12434784   -3.2188622    1.5632177   995396 
 3482000    1.1812639   -3.2188789   -1.6547417   0.12393475   -3.2188789    1.5641371   995563 
 3483000    1.1805786    -3.218546   -1.6556115   0.12377805    -3.218546    1.5629345   995751 
 3484000    1.1802405   -3.2174385   -1.6552214   0.12285586   -3.2174385    1.5622171   995923 
 3485000    1.1818493   -3.2190425   -1.6549503   0.12319068   -3.2190425    1.5640922   996085 
 3486000    1.1811727   -3.2185592    -1.655645   0.12579361   -3.2185592    1.5629143   996265 
 3487000    1.1812746    -3.218129    -1.655301   0.12458943    -3.218129     1.562828   996406 
 3488000    1.1817154    -3.219075   -1.6559055   0.12159243    -3.219075    1.5631695   996560 
 3489000    1.1823949   -3.2189885    -1.655223   0.12338937   -3.2189885    1.5637654   996753 
 3490000    1.1817812   -3.2179171   -1.6552219   0.12282707   -3.2179171    1.5626951   996918 
 3491000    1.1829325   -3.2185527   -1.6546207    0.1261111   -3.2185527     1.563932   997100 
 3492000    1.1825338   -3.2179874   -1.6548725   0.12645785   -3.2179874    1.5631149   997285 
 3493000    1.1823036   -3.2177428   -1.6551751   0.12849403   -3.2177428    1.5625677   997440 
 3494000    1.1831778   -3.2193306   -1.6558567   0.12432857   -3.2193306    1.5634739   997599 
 3495000     1.184003   -3.2194138   -1.6551067    0.1248005   -3.2194138    1.5643072   997763 
 3496000    1.1842233   -3.2192942     -1.65495   0.12461308   -3.2192942    1.5643442   997925 
 3497000    1.1846952    -3.218965   -1.6542844   0.12377888    -3.218965    1.5646807   998108 
 3498000    1.1840488   -3.2181132   -1.6545589   0.12538337   -3.2181132    1.5635543   998282 
 3499000    1.1856807   -3.2192887    -1.653871   0.12557613   -3.2192887    1.5654177   998468 
 3500000    1.1849641   -3.2184563    -1.654262   0.12730168   -3.2184563    1.5641943   998645 
 3501000    1.1856675   -3.2185781   -1.6537453   0.12757107   -3.2185781    1.5648329   998830 
 3502000    1.1859657   -3.2189082   -1.6539731   0.12408703   -3.2189082    1.5649351   999016 
 3503000    1.1862154   -3.2186414    -1.653626   0.12552748   -3.2186414    1.5650155   999175 
 3504000    1.1877307   -3.2195638   -1.6528393   0.12524659   -3.2195638    1.5667245   999360 
 3505000    1.1877908   -3.2192112   -1.6526817   0.12816192   -3.2192112    1.5665294   999535 
 3506000    1.1882306    -3.219758   -1.6528806   0.12928131    -3.219758    1.5668775   999683 
 3507000    1.1889991   -3.2202213   -1.6525718   0.13064116   -3.2202213    1.5676495   999837 
 3508000    1.1882631   -3.2189269   -1.6525049   0.12590024   -3.2189269    1.5664221  1000001 
 3509000    1.1880465   -3.2168705   -1.6509938   0.13064957   -3.2168705    1.5658767  1000167 
 3510000     1.189517   -3.2188872   -1.6513076   0.12882963   -3.2188872    1.5675797  1000317 
 3511000    1.1890838   -3.2179316   -1.6511875   0.12639081   -3.2179316    1.5667441  1000486 
 3512000    1.1896288   -3.2190816   -1.6518731    0.1261634   -3.2190816    1.5672085  1000648 
 3513000    1.1889667   -3.2176958   -1.6516319     0.129291   -3.2176958    1.5660639  1000822 
 3514000    1.1906589   -3.2189641   -1.6509173   0.13006882   -3.2189641    1.5680469  1000979 
 3515000    1.1906779   -3.2184164   -1.6506171   0.12877457   -3.2184164    1.5677993  1001153 
 3516000     1.189407   -3.2179576   -1.6520867   0.12650909   -3.2179576    1.5658709  1001316 
 3517000    1.1897892    -3.218123   -1.6520288   0.12990762    -3.218123    1.5660942  1001495 
 3518000    1.1900503   -3.2182438   -1.6520562    0.1273424   -3.2182438    1.5661876  1001655 
 3519000    1.1904597   -3.2183695   -1.6518824   0.12340932   -3.2183695    1.5664871  1001808 
 3520000     1.191228   -3.2191526   -1.6519268   0.12850126   -3.2191526    1.5672258  1001982 
 3521000    1.1912132   -3.2179639   -1.6510328   0.13004188   -3.2179639    1.5669312  1002158 
 3522000    1.1906981    -3.217825   -1.6518135    0.1255791    -3.217825    1.5660114  1002313 
 3523000    1.1922646   -3.2189503   -1.6511415   0.13109962   -3.2189503    1.5678089  1002481 
 3524000    1.1914584   -3.2178933   -1.6513837   0.12942737   -3.2178933    1.5665096  1002634 
 3525000    1.1922156   -3.2181246   -1.6508742   0.13026166   -3.2181246    1.5672505  1002797 
 3526000     1.193027   -3.2188462   -1.6508106   0.12768727   -3.2188462    1.5680356  1002977 
 3527000    1.1937506   -3.2186558   -1.6499006   0.12612118   -3.2186558    1.5687553  1003125 
 3528000     1.193892   -3.2180402   -1.6493729   0.13269914   -3.2180402    1.5686673  1003300 
 3529000    1.1954398   -3.2194371   -1.6490209   0.12930666   -3.2194371    1.5704161  1003482 
 3530000    1.1956694   -3.2190573   -1.6485916   0.12726394   -3.2190573    1.5704658  1003643 
 3531000    1.1948829   -3.2179182   -1.6487653   0.13554972   -3.2179182    1.5691529  1003822 
 3532000    1.1944129   -3.2181966   -1.6499171   0.13108465   -3.2181966    1.5682795  1003986 
 3533000    1.1944406    -3.218343   -1.6502646   0.13122844    -3.218343    1.5680784  1004138 
 3534000    1.1948344   -3.2188175   -1.6504455   0.12740861   -3.2188175     1.568372  1004281 
 3535000    1.1952016   -3.2180663   -1.6494668   0.13082303   -3.2180663    1.5685995  1004444 
 3536000    1.1962603   -3.2192242   -1.6494993   0.13155522   -3.2192242    1.5697248  1004613 
 3537000    1.1956371   -3.2191387   -1.6504798   0.12967495   -3.2191387    1.5686588  1004772 
 3538000    1.1965531   -3.2194033   -1.6498051   0.12863428   -3.2194033    1.5695982  1004940 
 3539000    1.1956729   -3.2180861   -1.6499172   0.12977205   -3.2180861    1.5681689  1005116 
 3540000    1.1980774   -3.2206198   -1.6495739   0.12616345   -3.2206198    1.5710458  1005293 
 3541000    1.1973509   -3.2188276   -1.6490233    0.1308564   -3.2188276    1.5698043  1005478 
 3542000    1.1970403   -3.2190098   -1.6498843   0.13167736   -3.2190098    1.5691255  1005652 
 3543000    1.1985043   -3.2199328    -1.649146   0.13056669   -3.2199328    1.5707868  1005817 
 3544000    1.1977862   -3.2183477   -1.6487596   0.13180818   -3.2183477    1.5695881  1005982 
 3545000    1.1994567   -3.2199323   -1.6483894   0.13298015   -3.2199323    1.5715429  1006132 
 3546000    1.1985806   -3.2183896   -1.6482645   0.13392168   -3.2183896    1.5701251  1006305 
 3547000    1.1997467   -3.2193581   -1.6479726   0.13257387   -3.2193581    1.5713855  1006476 
 3548000    1.2005824   -3.2205297   -1.6483401   0.12964102   -3.2205297    1.5721896  1006662 
 3549000    1.1995374   -3.2183752   -1.6478052   0.13827083   -3.2183752      1.57057  1006823 
 3550000    1.2024259   -3.2207429   -1.6466568   0.13260088   -3.2207429    1.5740862  1006993 
 3551000    1.2005571   -3.2188586   -1.6474763   0.13301358   -3.2188586    1.5713823  1007158 
 3552000    1.2002779   -3.2172659   -1.6464846   0.13375936   -3.2172659    1.5707813  1007309 
 3553000    1.2020974   -3.2192611   -1.6463859    0.1343404   -3.2192611    1.5728751  1007493 
 3554000    1.2021414   -3.2189966    -1.646323   0.13181348   -3.2189966    1.5726736  1007659 
 3555000    1.2011451   -3.2177772   -1.6466596   0.13094769   -3.2177772    1.5711175  1007821 
 3556000    1.2017992   -3.2180871   -1.6463448   0.13498743   -3.2180871    1.5717423  1007969 
 3557000    1.2020736   -3.2186033    -1.646736   0.13455351   -3.2186033    1.5718673  1008119 
 3558000    1.2011934   -3.2172894   -1.6468472   0.13676062   -3.2172894    1.5704422  1008295 
 3559000    1.2029703   -3.2195688   -1.6470156   0.12930217   -3.2195688    1.5725532  1008431 
 3560000    1.2027912   -3.2190415   -1.6469766   0.13433659   -3.2190415    1.5720649  1008594 
 3561000    1.2017794   -3.2179211   -1.6474573   0.12953666   -3.2179211    1.5704638  1008773 
 3562000    1.2020103   -3.2181669   -1.6476241   0.13365393   -3.2181669    1.5705429  1008916 
 3563000    1.2036237   -3.2190616   -1.6467192    0.1285799   -3.2190616    1.5723424  1009114 
 3564000    1.2037513   -3.2182847   -1.6460234   0.12674338   -3.2182847    1.5722613  1009273 
 3565000    1.2048713   -3.2191139   -1.6456205   0.12855451   -3.2191139    1.5734935  1009421 
 3566000     1.203708   -3.2180688   -1.6463374   0.12963882   -3.2180688    1.5717314  1009577 
 3567000    1.2031136   -3.2170088   -1.6462962   0.13340336   -3.2170088    1.5707126  1009733 
 3568000    1.2029129   -3.2166691   -1.6464906    0.1305469   -3.2166691    1.5701784  1009908 
 3569000    1.2048007   -3.2186264   -1.6462454   0.13480723   -3.2186264     1.572381  1010076 
 3570000    1.2046564    -3.216714   -1.6447672   0.13201581    -3.216714    1.5719468  1010234 
 3571000    1.2055358    -3.218384   -1.6455295   0.13249959    -3.218384    1.5728545  1010388 
 3572000    1.2064817   -3.2182876   -1.6444373   0.13464628   -3.2182876    1.5738503  1010541 
 3573000    1.2060901   -3.2171825    -1.644061   0.13431639   -3.2171825    1.5731215  1010681 
 3574000    1.2074701   -3.2184182   -1.6437288   0.13480101   -3.2184182    1.5746894  1010830 
 3575000    1.2064629   -3.2166892   -1.6435531   0.13898491   -3.2166892    1.5731361  1010984 
 3576000    1.2075475   -3.2184484   -1.6441503   0.13304129   -3.2184484    1.5742982  1011146 
 3577000    1.2075103   -3.2174221   -1.6434433   0.13907246   -3.2174221    1.5739788  1011320 
 3578000     1.208969   -3.2184526   -1.6428233   0.13632138   -3.2184526    1.5756293  1011481 
 3579000    1.2095489   -3.2190024   -1.6428619   0.13751609   -3.2190024    1.5761405  1011638 
 3580000    1.2087138   -3.2178108   -1.6429843   0.13284754   -3.2178108    1.5748265  1011783 
 3581000    1.2100791   -3.2192835    -1.642957   0.13472648   -3.2192835    1.5763266  1011962 
 3582000    1.2095325   -3.2189016   -1.6435206   0.13469871   -3.2189016     1.575381  1012112 
 3583000    1.2109577   -3.2193482   -1.6423416    0.1362431   -3.2193482    1.5770067  1012260 
 3584000     1.210307   -3.2182438   -1.6423149   0.13265457   -3.2182438    1.5759289  1012408 
 3585000    1.2108562    -3.218991   -1.6425619   0.13897647    -3.218991    1.5764291  1012546 
 3586000    1.2114591   -3.2193269   -1.6423465   0.13806596   -3.2193269    1.5769804  1012696 
 3587000    1.2103954   -3.2179379   -1.6425428   0.13778536   -3.2179379    1.5753951  1012825 
 3588000     1.212003   -3.2186361   -1.6413807   0.13747686   -3.2186361    1.5772554  1012974 
 3589000    1.2107129   -3.2172516   -1.6418758   0.14224696   -3.2172516    1.5753758  1013103 
 3590000    1.2113543   -3.2173869   -1.6414362   0.13517357   -3.2173869    1.5759507  1013270 
 3591000    1.2126986   -3.2187595   -1.6413042   0.13757261   -3.2187595    1.5774553  1013427 
 3592000    1.2119613   -3.2177936    -1.641537   0.13635719   -3.2177936    1.5762566  1013581 
 3593000    1.2114445   -3.2179294   -1.6425563   0.13713857   -3.2179294    1.5753731  1013717 
 3594000    1.2117008   -3.2178606   -1.6423532   0.13266884   -3.2178606    1.5755074  1013845 
 3595000    1.2120122   -3.2168687   -1.6411941   0.13811682   -3.2168687    1.5756746  1013998 
 3596000    1.2118702   -3.2178725   -1.6425861   0.13274046   -3.2178725    1.5752865  1014129 
 3597000    1.2117808   -3.2174588   -1.6425154   0.13249825   -3.2174588    1.5749434  1014275 
 3598000    1.2117137   -3.2172532   -1.6426453   0.13565657   -3.2172532    1.5746079  1014435 
 3599000     1.212328   -3.2166779   -1.6414891   0.13567723   -3.2166779    1.5751888  1014575 
 3600000      1.21276   -3.2168924   -1.6413581   0.13436671   -3.2168924    1.5755343  1014714 
 3601000    1.2136006   -3.2173363   -1.6409772   0.13386689   -3.2173363    1.5763591  1014886 
 3602000    1.2129224   -3.2163312   -1.6410829   0.13523823   -3.2163312    1.5752484  1015034 
 3603000    1.2131301   -3.2168853   -1.6415984   0.13593789   -3.2168853     1.575287  1015183 
 3604000      1.21458   -3.2183407   -1.6414134   0.13103003   -3.2183407    1.5769273  1015339 
 3605000    1.2142196    -3.218506   -1.6422701   0.13153997    -3.218506    1.5762359  1015483 
 3606000    1.2151326   -3.2186727   -1.6415297   0.13213966   -3.2186727     1.577143  1015662 
 3607000     1.215406    -3.219288   -1.6420199   0.13312735    -3.219288    1.5772681  1015810 
 3608000    1.2157486   -3.2182305   -1.6407492    0.1344908   -3.2182305    1.5774813  1015959 
 3609000    1.2154225   -3.2175379   -1.6407079   0.13634895   -3.2175379      1.57683  1016106 
 3610000    1.2168741   -3.2181971   -1.6397075   0.13627324   -3.2181971    1.5784895  1016250 
 3611000    1.2173455   -3.2182698   -1.6393971   0.13960469   -3.2182698    1.5788727  1016397 
 3612000    1.2171989   -3.2187563   -1.6403083    0.1376956   -3.2187563     1.578448  1016548 
 3613000    1.2184162   -3.2197362   -1.6399442   0.13779754   -3.2197362     1.579792  1016699 
 3614000    1.2178966   -3.2191316   -1.6402323   0.13692391   -3.2191316    1.5788993  1016840 
 3615000     1.219142   -3.2201591   -1.6398893   0.13589842   -3.2201591    1.5802698  1016997 
 3616000    1.2178721   -3.2189937   -1.6405717   0.14015946   -3.2189937     1.578422  1017127 
 3617000    1.2184017   -3.2194008   -1.6405393   0.14076767   -3.2194008    1.5788616  1017286 
 3618000    1.2190521   -3.2204935   -1.6410266   0.13402176   -3.2204935    1.5794669  1017439 
 3619000    1.2182383   -3.2192827   -1.6411169   0.14061419   -3.2192827    1.5781658  1017598 
 3620000     1.220358   -3.2214596   -1.6407606   0.13841414   -3.2214596     1.580699  1017735 
 3621000    1.2185681   -3.2188828   -1.6407085   0.14009275   -3.2188828    1.5781743  1017868 
 3622000    1.2188817   -3.2191291   -1.6407952   0.14106163   -3.2191291    1.5783339  1018027 
 3623000     1.220371    -3.220921   -1.6408976   0.14252016    -3.220921    1.5800234  1018181 
 3624000    1.2202406   -3.2202163   -1.6405944   0.13789409   -3.2202163    1.5796219  1018331 
 3625000    1.2202478   -3.2200841   -1.6407305   0.14132258   -3.2200841    1.5793536  1018510 
 3626000     1.221573    -3.220799   -1.6399833   0.14110017    -3.220799    1.5808157  1018673 
 3627000    1.2217315   -3.2207337    -1.639913    0.1417505   -3.2207337    1.5808206  1018802 
 3628000    1.2226338   -3.2218235   -1.6400558   0.13866488   -3.2218235    1.5817677  1018944 
 3629000    1.2230852   -3.2219614    -1.639869   0.13853496   -3.2219614    1.5820924  1019111 
 3630000    1.2224302    -3.220982   -1.6399447   0.14265458    -3.220982    1.5810373  1019245 
 3631000    1.2221114   -3.2205376   -1.6401421   0.14593142   -3.2205376    1.5803955  1019393 
 3632000      1.22247   -3.2207416   -1.6401088   0.14171654   -3.2207416    1.5806328  1019539 
 3633000    1.2238473   -3.2221109   -1.6399363   0.13703364   -3.2221109    1.5821746  1019693 
 3634000    1.2232049   -3.2210209   -1.6399311   0.14072282   -3.2210209    1.5810898  1019857 
 3635000     1.224253   -3.2221578   -1.6399427   0.13554152   -3.2221578     1.582215  1020005 
 3636000    1.2214538   -3.2187262   -1.6403733   0.14022309   -3.2187262    1.5783529  1020163 
 3637000    1.2216785   -3.2190574   -1.6406417   0.13741643   -3.2190574    1.5784157  1020310 
 3638000     1.222935   -3.2204346   -1.6406091    0.1389725   -3.2204346    1.5798255  1020448 
 3639000    1.2236648   -3.2204971   -1.6399952   0.13684244   -3.2204971    1.5805019  1020620 
 3640000    1.2236888    -3.220366    -1.640073   0.14005617    -3.220366     1.580293  1020775 
 3641000    1.2245294   -3.2209356   -1.6397708   0.13740254   -3.2209356    1.5811648  1020913 
 3642000    1.2227534   -3.2193742   -1.6407223   0.13815568   -3.2193742    1.5786518  1021055 
 3643000    1.2225495   -3.2193549   -1.6411749   0.14092237   -3.2193549      1.57818  1021190 
 3644000    1.2233338   -3.2200447    -1.641078   0.13695541   -3.2200447    1.5789667  1021336 
 3645000    1.2246618   -3.2205588   -1.6401071   0.14219614   -3.2205588    1.5804518  1021484 
 3646000    1.2251453   -3.2204747   -1.6396079   0.14247269   -3.2204747    1.5808668  1021619 
 3647000    1.2252739   -3.2197005    -1.638886   0.14370873   -3.2197005    1.5808145  1021760 
 3648000    1.2242664   -3.2184268   -1.6391425   0.14455735   -3.2184268    1.5792843  1021909 
 3649000    1.2259542   -3.2204144   -1.6391508   0.14223646   -3.2204144    1.5812636  1022037 
 3650000    1.2265727   -3.2212353    -1.639383   0.13894044   -3.2212353    1.5818524  1022172 
 3651000    1.2269682   -3.2226246   -1.6404897   0.13932686   -3.2226246    1.5821349  1022319 
 3652000    1.2256714   -3.2208082   -1.6405666    0.1418619   -3.2208082    1.5802416  1022462 
 3653000    1.2277743   -3.2221252   -1.6393999   0.14104361   -3.2221252    1.5827253  1022609 
 3654000    1.2274999    -3.221673   -1.6395179   0.14633878    -3.221673    1.5821551  1022749 
 3655000    1.2281911   -3.2214805   -1.6386884   0.14290029   -3.2214805    1.5827921  1022913 
 3656000    1.2283241   -3.2212632   -1.6385147   0.14041522   -3.2212632    1.5827485  1023052 
 3657000     1.228369    -3.220623   -1.6380224   0.14161479    -3.220623    1.5826006  1023185 
 3658000     1.228136   -3.2201477   -1.6380886   0.14806577   -3.2201477    1.5820591  1023341 
 3659000    1.2298885   -3.2220714   -1.6380195   0.14180888   -3.2220714     1.584052  1023512 
 3660000    1.2295053   -3.2214824   -1.6381266   0.14431009   -3.2214824    1.5833558  1023643 
 3661000    1.2300187   -3.2218438   -1.6380512   0.14345538   -3.2218438    1.5837926  1023788 
 3662000    1.2293703   -3.2220339    -1.639285   0.14509369   -3.2220339    1.5827489  1023923 
 3663000    1.2297051   -3.2221714    -1.639217   0.14240249   -3.2221714    1.5829544  1024069 
 3664000    1.2297511   -3.2221111   -1.6393202   0.14104514   -3.2221111    1.5827909  1024213 
 3665000    1.2307143   -3.2233205   -1.6395079   0.14282228   -3.2233205    1.5838126  1024354 
 3666000    1.2295752    -3.222363   -1.6402618     0.141712    -3.222363    1.5821012  1024513 
 3667000    1.2299419   -3.2223129   -1.6399917   0.14176631   -3.2223129    1.5823213  1024676 
 3668000    1.2311156   -3.2232218   -1.6396009   0.14522291   -3.2232218     1.583621  1024812 
 3669000    1.2302488   -3.2229947    -1.640697    0.1412177   -3.2229947    1.5822976  1024947 
 3670000    1.2304994   -3.2221784   -1.6397761   0.14525695   -3.2221784    1.5824022  1025088 
 3671000     1.230519   -3.2224231   -1.6402457   0.13972947   -3.2224231    1.5821774  1025250 
 3672000    1.2319151   -3.2232979   -1.6395385   0.14449977   -3.2232979    1.5837593  1025388 
 3673000    1.2329971    -3.224366   -1.6394352   0.13719841    -3.224366    1.5849308  1025530 
 3674000    1.2318908    -3.223181   -1.6398497   0.14467458    -3.223181    1.5833313  1025645 
 3675000     1.232633   -3.2232871   -1.6391857   0.14880952   -3.2232871    1.5841014  1025764 
 3676000    1.2334921   -3.2240078    -1.639045   0.14599788   -3.2240078    1.5849629  1025921 
 3677000    1.2337923   -3.2234386   -1.6383512   0.14787473   -3.2234386    1.5850874  1026090 
 3678000    1.2329472   -3.2224224   -1.6386182    0.1448721   -3.2224224    1.5838042  1026218 
 3679000    1.2334869   -3.2232289   -1.6389461   0.14443605   -3.2232289    1.5842828  1026357 
 3680000    1.2340522    -3.223807   -1.6390313   0.14533336    -3.223807    1.5847757  1026508 
 3681000    1.2333013   -3.2225297   -1.6389126    0.1478153   -3.2225297    1.5836171  1026634 
 3682000    1.2348807   -3.2236331   -1.6382459   0.14923721   -3.2236331    1.5853873  1026801 
 3683000    1.2353711    -3.223089   -1.6372854   0.14588178    -3.223089    1.5858037  1026939 
 3684000    1.2362611   -3.2244077    -1.637681   0.14227012   -3.2244077    1.5867267  1027081 
 3685000    1.2354889   -3.2236206   -1.6381134   0.14665191   -3.2236206    1.5855071  1027229 
 3686000    1.2364446   -3.2244034   -1.6378675   0.14663946   -3.2244034    1.5865359  1027357 
 3687000    1.2357593   -3.2232848   -1.6378195   0.14544883   -3.2232848    1.5854653  1027481 
 3688000    1.2368505    -3.224405   -1.6377513   0.14512809    -3.224405    1.5866537  1027618 
 3689000    1.2373296   -3.2243952   -1.6373354   0.14730886   -3.2243952    1.5870598  1027753 
 3690000    1.2375248   -3.2242208   -1.6371222   0.14697717   -3.2242208    1.5870985  1027890 
 3691000    1.2378635   -3.2242229   -1.6369231   0.14802352   -3.2242229    1.5872997  1028041 
 3692000    1.2376305    -3.223724   -1.6369083   0.14294262    -3.223724    1.5868157  1028161 
 3693000    1.2377373   -3.2236456   -1.6368997   0.14649811   -3.2236456    1.5867458  1028295 
 3694000    1.2382583   -3.2245399   -1.6373298   0.14641435   -3.2245399    1.5872101  1028427 
 3695000    1.2374612   -3.2239596    -1.637961   0.14364842   -3.2239596    1.5859986  1028550 
 3696000    1.2371714    -3.223899   -1.6384521   0.14295093    -3.223899    1.5854469  1028667 
 3697000    1.2363447   -3.2229899   -1.6387827   0.15035261   -3.2229899    1.5842073  1028784 
 3698000    1.2365974   -3.2230146   -1.6386591   0.14618659   -3.2230146    1.5843555  1028898 
 3699000    1.2368178   -3.2232731   -1.6388662   0.14374146   -3.2232731    1.5844069  1029048 
 3700000    1.2382155   -3.2245056   -1.6385271   0.14571423   -3.2245056    1.5859785  1029190 
 3701000    1.2371805   -3.2225639   -1.6381066   0.14868687   -3.2225639    1.5844574  1029317 
 3702000     1.238773   -3.2242056   -1.6379045   0.14372276   -3.2242056    1.5863011  1029444 
 3703000     1.239455   -3.2243132    -1.637353   0.14614415   -3.2243132    1.5869602  1029583 
 3704000    1.2390878   -3.2238666   -1.6376139   0.14380795   -3.2238666    1.5862527  1029737 
 3705000     1.238561   -3.2221426   -1.6367491   0.15154136   -3.2221426    1.5853936  1029857 
 3706000    1.2405611   -3.2240763   -1.6363044   0.14656305   -3.2240763    1.5877719  1029975 
 3707000    1.2397244   -3.2234324   -1.6369301   0.14639463   -3.2234324    1.5865023  1030104 
 3708000    1.2409773   -3.2257749   -1.6378774   0.14635599   -3.2257749    1.5878975  1030239 
 3709000    1.2398883   -3.2239009   -1.6376262   0.15083423   -3.2239009    1.5862747  1030388 
 3710000    1.2412934   -3.2255811   -1.6377076    0.1484916   -3.2255811    1.5878735  1030517 
 3711000    1.2410017   -3.2244362   -1.6371668   0.14839303   -3.2244362    1.5872694  1030667 
 3712000    1.2418412   -3.2252247   -1.6370757   0.14641131   -3.2252247     1.588149  1030793 
 3713000    1.2422847   -3.2251252   -1.6366156   0.14873291   -3.2251252    1.5885096  1030927 
 3714000    1.2421708    -3.224171   -1.6360026    0.1496314    -3.224171    1.5881684  1031054 
 3715000    1.2428716   -3.2251441   -1.6362754   0.15088294   -3.2251441    1.5888687  1031181 
 3716000    1.2428094   -3.2252789   -1.6366992   0.14661658   -3.2252789    1.5885796  1031317 
 3717000    1.2425466   -3.2250834   -1.6370337   0.15068347   -3.2250834    1.5880497  1031443 
 3718000     1.244353   -3.2268396   -1.6366817   0.15090873   -3.2268396    1.5901579  1031573 
 3719000    1.2442464   -3.2264197   -1.6365984   0.14538832   -3.2264197    1.5898213  1031703 
 3720000     1.243483   -3.2256604   -1.6369978    0.1499074   -3.2256604    1.5886626  1031822 
 3721000    1.2435308   -3.2253766   -1.6368746   0.15271806   -3.2253766    1.5885021  1031966 
 3722000    1.2445478   -3.2269767   -1.6373727   0.15191885   -3.2269767     1.589604  1032094 
 3723000    1.2443603   -3.2273017   -1.6380804   0.14858915   -3.2273017    1.5892213  1032187 
 3724000    1.2448457   -3.2269649    -1.637333   0.14524052   -3.2269649    1.5896318  1032323 
 3725000    1.2439019   -3.2256122   -1.6374133   0.14915724   -3.2256122    1.5881989  1032471 
 3726000    1.2448585   -3.2275059   -1.6382796   0.14798605   -3.2275059    1.5892264  1032597 
 3727000    1.2440321   -3.2270871   -1.6391388   0.14778119   -3.2270871    1.5879483  1032742 
 3728000    1.2435089   -3.2257156   -1.6386363   0.15060653   -3.2257156    1.5870792  1032873 
 3729000    1.2443825   -3.2268061   -1.6388134   0.14803712   -3.2268061    1.5879928  1033004 
 3730000    1.2454962   -3.2283834   -1.6391494   0.14900657   -3.2283834     1.589234  1033121 
 3731000    1.2456052   -3.2282912   -1.6391443   0.14712492   -3.2282912     1.589147  1033268 
 3732000    1.2450431   -3.2272897    -1.639075    0.1484341   -3.2272897    1.5882147  1033408 
 3733000    1.2457433   -3.2271699   -1.6382543     0.147025   -3.2271699    1.5889156  1033533 
 3734000    1.2460289    -3.227613   -1.6384975   0.14561943    -3.227613    1.5891154  1033640 
 3735000    1.2465192   -3.2276684     -1.63814   0.14768849   -3.2276684    1.5895285  1033778 
 3736000     1.247093   -3.2287515   -1.6386897   0.14703471   -3.2287515    1.5900618  1033907 
 3737000    1.2463367   -3.2272775   -1.6383767   0.15409974   -3.2272775    1.5889008  1034035 
 3738000    1.2465474   -3.2265507   -1.6375581   0.15551875   -3.2265507    1.5889926  1034150 
 3739000    1.2475383   -3.2279004   -1.6378183   0.15066615   -3.2279004     1.590082  1034263 
 3740000    1.2476749   -3.2278654   -1.6377846   0.15007192   -3.2278654    1.5900809  1034377 
 3741000    1.2473939   -3.2276318   -1.6380811   0.15040169   -3.2276318    1.5895506  1034489 
 3742000    1.2482703   -3.2281365   -1.6376812    0.1515808   -3.2281365    1.5904553  1034627 
 3743000    1.2491237   -3.2282297   -1.6369194   0.15278237   -3.2282297    1.5913103  1034778 
 3744000    1.2486799   -3.2280958   -1.6375644   0.14671756   -3.2280958    1.5905314  1034917 
 3745000    1.2488577   -3.2285858   -1.6380324   0.14909613   -3.2285858    1.5905534  1035050 
 3746000    1.2494993   -3.2284091   -1.6372399   0.15061357   -3.2284091    1.5911692  1035181 
 3747000    1.2493437   -3.2288993   -1.6381173   0.15139273   -3.2288993     1.590782  1035304 
 3748000    1.2491463    -3.227661   -1.6373162   0.15131956    -3.227661    1.5903448  1035425 
 3749000    1.2495517   -3.2278664   -1.6371837   0.14978998   -3.2278664    1.5906827  1035541 
 3750000    1.2491738   -3.2278378   -1.6378434   0.15183518   -3.2278378    1.5899944  1035676 
 3751000    1.2497594   -3.2286944   -1.6381604   0.14907572   -3.2286944     1.590534  1035810 
 3752000    1.2490763   -3.2285779   -1.6391343   0.14441627   -3.2285779    1.5894436  1035954 
 3753000     1.249335   -3.2287929   -1.6391981   0.15317612   -3.2287929    1.5895948  1036070 
 3754000    1.2504551   -3.2292728   -1.6384157   0.14603698   -3.2292728    1.5908572  1036176 
 3755000     1.251024   -3.2292887   -1.6378998   0.15130526   -3.2292887     1.591389  1036301 
 3756000    1.2507252   -3.2285394   -1.6377178   0.15439397   -3.2285394    1.5908216  1036423 
 3757000    1.2512872   -3.2288633   -1.6374912    0.1517413   -3.2288633    1.5913721  1036530 
 3758000    1.2499223   -3.2267102   -1.6372794   0.15669775   -3.2267102    1.5894308  1036664 
 3759000    1.2511532   -3.2287863   -1.6379851    0.1575888   -3.2287863    1.5908012  1036791 
 3760000    1.2518807   -3.2286755   -1.6371734   0.15389534   -3.2286755     1.591502  1036937 
 3761000    1.2521794   -3.2294152   -1.6377008   0.15276894   -3.2294152    1.5917145  1037046 
 3762000    1.2522321   -3.2287143   -1.6371355   0.15399046   -3.2287143    1.5915788  1037178 
 3763000    1.2535235   -3.2301008   -1.6370603   0.15167361   -3.2301008    1.5930405  1037295 
 3764000    1.2534496   -3.2299599   -1.6372313   0.15085058   -3.2299599    1.5927286  1037437 
 3765000    1.2544618   -3.2306319   -1.6368091   0.14948375   -3.2306319    1.5938227  1037562 
 3766000    1.2527049   -3.2291605   -1.6377434   0.15227493   -3.2291605    1.5914172  1037675 
 3767000    1.2534815    -3.229668   -1.6374575   0.15619236    -3.229668    1.5922105  1037801 
 3768000    1.2521544   -3.2273035   -1.6369627    0.1557555   -3.2273035    1.5903408  1037921 
[...]
 7812000    1.4354754   -3.5962658   -2.0281025   0.23342348   -3.5962658    1.5681633  1206705 
 7813000    1.4346262   -3.5960002   -2.0287998   0.23152402   -3.5960002    1.5672005  1206732 
 7814000    1.4348563   -3.5964778   -2.0290454   0.22671978   -3.5964778    1.5674323  1206747 
 7815000    1.4353233   -3.5971212   -2.0292021   0.23300755   -3.5971212    1.5679191  1206765 
 7816000     1.434793   -3.5963191   -2.0290091   0.23255656   -3.5963191      1.56731  1206788 
 7817000    1.4348879   -3.5964617   -2.0290688   0.23271698   -3.5964617    1.5673929  1206804 
 7818000    1.4361954   -3.5970885   -2.0282908   0.23023057   -3.5970885    1.5687977  1206822 
 7819000    1.4352959   -3.5972487   -2.0294595   0.22895897   -3.5972487    1.5677892  1206842 
 7820000    1.4350681   -3.5964488   -2.0289448   0.23043367   -3.5964488     1.567504  1206870 
 7821000    1.4352564   -3.5964013   -2.0287163   0.22977301   -3.5964013    1.5676849  1206889 
 7822000    1.4359107   -3.5964149   -2.0280439   0.23215588   -3.5964149     1.568371  1206911 
 7823000    1.4349097    -3.596025   -2.0287811   0.23254051    -3.596025    1.5672439  1206937 
 7824000    1.4356008   -3.5967762   -2.0288112   0.22787549   -3.5967762     1.567965  1206963 
 7825000    1.4351331   -3.5962802   -2.0288533   0.23200952   -3.5962802    1.5674269  1206984 
 7826000    1.4349915   -3.5954724   -2.0282274   0.23543002   -3.5954724     1.567245  1207005 
 7827000    1.4355638   -3.5965431   -2.0287095   0.23359218   -3.5965431    1.5678337  1207033 
 7828000     1.435698   -3.5966786   -2.0287152   0.23544782   -3.5966786    1.5679634  1207046 
 7829000    1.4357901   -3.5971845   -2.0291491   0.23161785   -3.5971845    1.5680354  1207068 
 7830000    1.4360837   -3.5972013    -2.028879   0.22879439   -3.5972013    1.5683222  1207094 
 7831000    1.4363231   -3.5981382   -2.0295896   0.23297636   -3.5981382    1.5685485  1207121 
 7832000    1.4362215   -3.5975302   -2.0291147   0.22873267   -3.5975302    1.5684155  1207138 
 7833000    1.4369802   -3.5975233    -2.028304   0.23234672   -3.5975233    1.5692193  1207157 
 7834000    1.4356016   -3.5964541   -2.0287753   0.23739361   -3.5964541    1.5676788  1207184 
 7835000    1.4358677    -3.596459   -2.0285117   0.23626791    -3.596459    1.5679473  1207201 
 7836000    1.4348874   -3.5960715   -2.0292322   0.23396357   -3.5960715    1.5668392  1207230 
 7837000    1.4359567   -3.5974533   -2.0294699   0.23476658   -3.5974533    1.5679834  1207248 
 7838000    1.4357126   -3.5968265   -2.0291343   0.23761637   -3.5968265    1.5676922  1207267 
 7839000    1.4372018   -3.5982163   -2.0289278   0.22926879   -3.5982163    1.5692884  1207290 
 7840000    1.4373151   -3.5987567   -2.0293783   0.23119452   -3.5987567    1.5693784  1207316 
 7841000    1.4362762   -3.5983771   -2.0301591   0.23401602   -3.5983771     1.568218  1207336 
 7842000    1.4365778   -3.5988053   -2.0302852   0.23245671   -3.5988053    1.5685201  1207357 
 7843000    1.4365725   -3.5983615   -2.0298797   0.23232187   -3.5983615    1.5684818  1207382 
 7844000    1.4367088   -3.5986549   -2.0300529   0.23343347   -3.5986549     1.568602  1207404 
 7845000    1.4353616   -3.5977879     -2.03068   0.22991732   -3.5977879    1.5671078  1207422 
 7846000    1.4355026   -3.5984547   -2.0312229   0.23078534   -3.5984547    1.5672318  1207445 
 7847000    1.4348156   -3.5974285   -2.0309778   0.23259193   -3.5974285    1.5664507  1207469 
 7848000    1.4355776    -3.598643   -2.0313759   0.22989643    -3.598643     1.567267  1207481 
 7849000    1.4353354   -3.5984982   -2.0315306   0.22903247   -3.5984982    1.5669676  1207508 
 7850000    1.4353684   -3.5989473   -2.0319709    0.2292619   -3.5989473    1.5669764  1207529 
 7851000    1.4335652    -3.597285   -2.0323018   0.23450296    -3.597285    1.5649832  1207548 
 7852000    1.4356484    -3.599532   -2.0323032   0.22945384    -3.599532    1.5672288  1207570 
 7853000    1.4363204   -3.6001597   -2.0322285   0.22964642   -3.6001597    1.5679313  1207594 
 7854000    1.4355021   -3.5990237   -2.0320221   0.23279554   -3.5990237    1.5670017  1207622 
 7855000    1.4366879   -3.5997791   -2.0315272    0.2342255   -3.5997791    1.5682519  1207656 
 7856000    1.4360917   -3.5991365   -2.0315562   0.23084495   -3.5991365    1.5675803  1207672 
 7857000    1.4362598    -3.599585   -2.0318498   0.23151569    -3.599585    1.5677352  1207694 
 7858000    1.4346598   -3.5979504   -2.0319966   0.23955961   -3.5979504    1.5659537  1207721 
 7859000    1.4359681    -3.599072   -2.0317265   0.23278689    -3.599072    1.5673455  1207749 
 7860000     1.436693   -3.5992783   -2.0311727   0.23537705   -3.5992783    1.5681055  1207773 
 7861000    1.4367225   -3.5990792     -2.03097   0.23223523   -3.5990792    1.5681091  1207795 
 7862000    1.4361039   -3.5993975   -2.0319946   0.23379004   -3.5993975    1.5674029  1207819 
 7863000    1.4375195   -3.6003746   -2.0314514   0.22827278   -3.6003746    1.5689232  1207838 
 7864000    1.4363551   -3.5999207   -2.0322982   0.23501497   -3.5999207    1.5676226  1207861 
 7865000    1.4355106    -3.599592   -2.0329184   0.22791443    -3.599592    1.5666736  1207882 
 7866000    1.4353532    -3.599877   -2.0334089   0.23402372    -3.599877    1.5664681  1207908 
 7867000    1.4359133   -3.5998973   -2.0328582   0.23187969   -3.5998973    1.5670391  1207939 
 7868000    1.4369242   -3.5993722   -2.0312545   0.23460183   -3.5993722    1.5681176  1207958 
 7869000     1.436976   -3.5989453   -2.0307841   0.23632957   -3.5989453    1.5681612  1207968 
 7870000    1.4376374   -3.5993929   -2.0305384   0.23727492   -3.5993929    1.5688545  1207990 
 7871000    1.4373716   -3.5993755   -2.0308344   0.23127207   -3.5993755     1.568541  1208008 
 7872000    1.4377077   -3.5992088   -2.0303321   0.23114991   -3.5992088    1.5688767  1208032 
 7873000    1.4380642   -3.5995686   -2.0303354   0.22877526   -3.5995686    1.5692332  1208057 
 7874000    1.4381031   -3.5995755   -2.0303311   0.23262296   -3.5995755    1.5692444  1208081 
 7875000    1.4375821   -3.5996564   -2.0309986   0.23613108   -3.5996564    1.5686577  1208095 
 7876000    1.4367421   -3.5987261   -2.0310031   0.23689212   -3.5987261    1.5677229  1208109 
 7877000    1.4377608   -3.6003858   -2.0315733   0.23088818   -3.6003858    1.5688125  1208126 
 7878000    1.4360886   -3.5989554   -2.0319883   0.23467662   -3.5989554    1.5669671  1208142 
 7879000     1.436898    -3.599826   -2.0320004   0.23327711    -3.599826    1.5678256  1208161 
 7880000    1.4371591    -3.600651     -2.03256   0.22855952    -3.600651     1.568091  1208176 
 7881000    1.4364984    -3.599911   -2.0325616    0.2339565    -3.599911    1.5673494  1208192 
 7882000    1.4369021   -3.5999475   -2.0321824   0.23340477   -3.5999475    1.5677652  1208211 
 7883000    1.4375229   -3.6008028    -2.032407   0.23378107   -3.6008028    1.5683958  1208247 
 7884000    1.4370866   -3.5999474   -2.0320626   0.23485688   -3.5999474    1.5678848  1208274 
 7885000    1.4368492   -3.6004891   -2.0328906   0.23531306   -3.6004891    1.5675985  1208295 
 7886000    1.4369602   -3.6008418   -2.0331338   0.23330529   -3.6008418     1.567708  1208304 
 7887000    1.4375337   -3.6016561   -2.0333446   0.22945793   -3.6016561    1.5683115  1208321 
 7888000    1.4365247    -3.601217    -2.034036   0.23471679    -3.601217    1.5671809  1208344 
 7889000    1.4367096   -3.6012119   -2.0338617   0.23065189   -3.6012119    1.5673502  1208369 
 7890000    1.4368984   -3.6013418   -2.0338142    0.2313982   -3.6013418    1.5675277  1208391 
 7891000    1.4359174   -3.6000616   -2.0336392   0.23938849   -3.6000616    1.5664224  1208418 
 7892000     1.436394   -3.6012703   -2.0343603   0.23239121   -3.6012703      1.56691  1208443 
 7893000    1.4368371   -3.6022973   -2.0349274   0.23363365   -3.6022973      1.56737  1208461 
 7894000     1.435931   -3.6011033   -2.0347529   0.22971955   -3.6011033    1.5663504  1208485 
 7895000    1.4354861   -3.6009906   -2.0351423   0.23215056   -3.6009906    1.5658483  1208498 
 7896000    1.4363607   -3.6024293   -2.0356439    0.2302151   -3.6024293    1.5667854  1208511 
 7897000    1.4366212    -3.602681   -2.0356347   0.23036383    -3.602681    1.5670463  1208529 
 7898000    1.4372503    -3.602554   -2.0348592   0.23337257    -3.602554    1.5676948  1208558 
 7899000    1.4364482   -3.6015613   -2.0347699   0.23481088   -3.6015613    1.5667914  1208580 
 7900000    1.4371003   -3.6017731    -2.034299   0.23449846   -3.6017731    1.5674741  1208602 
 7901000    1.4380455   -3.6029777   -2.0345102    0.2297592   -3.6029777    1.5684675  1208631 
 7902000    1.4363632   -3.6016483   -2.0350546   0.23448034   -3.6016483    1.5665937  1208661 
 7903000    1.4371221   -3.6015448   -2.0341519   0.23100126   -3.6015448    1.5673929  1208683 
 7904000    1.4373425   -3.6010659   -2.0334637     0.233724   -3.6010659    1.5676021  1208707 
 7905000    1.4380836   -3.6027145   -2.0343365   0.23012099   -3.6027145     1.568378  1208732 
 7906000    1.4371545   -3.6014266   -2.0340917   0.23361871   -3.6014266    1.5673349  1208755 
 7907000    1.4379365   -3.6023986   -2.0342239   0.23507476   -3.6023986    1.5681747  1208765 
 7908000     1.437541   -3.6026737   -2.0349536    0.2295264   -3.6026737    1.5677201  1208783 
 7909000    1.4375339   -3.6016907   -2.0339978   0.22987506   -3.6016907    1.5676929  1208798 
 7910000    1.4373975   -3.6018485   -2.0343316    0.2303211   -3.6018485    1.5675169  1208819 
 7911000    1.4371801   -3.6017655   -2.0345155   0.22952447   -3.6017655      1.56725  1208842 
 7912000     1.437797   -3.6019853   -2.0341054   0.23316399   -3.6019853      1.56788  1208875 
 7913000    1.4376489   -3.6024896   -2.0348114   0.23396414   -3.6024896    1.5676782  1208906 
 7914000    1.4377654   -3.6029397   -2.0351707    0.2347609   -3.6029397     1.567769  1208934 
 7915000    1.4379282   -3.6028141   -2.0348923   0.23058243   -3.6028141    1.5679218  1208953 
 7916000    1.4367822   -3.6012494   -2.0345992   0.23412088   -3.6012494    1.5666502  1208970 
 7917000    1.4375039   -3.6014537    -2.034049   0.23482122   -3.6014537    1.5674048  1208995 
 7918000    1.4383391   -3.6020697    -2.033779   0.23671852   -3.6020697    1.5682907  1209014 
 7919000    1.4381751   -3.6023615    -2.034304   0.23255607   -3.6023615    1.5680575  1209056 
 7920000    1.4372235   -3.6008424   -2.0338471   0.23836078   -3.6008424    1.5669953  1209075 
 7921000    1.4378501   -3.6015396   -2.0338935   0.23602082   -3.6015396    1.5676461  1209100 
 7922000    1.4382352   -3.6028306   -2.0347945   0.23431096   -3.6028306    1.5680361  1209123 
 7923000    1.4384577   -3.6037583   -2.0354926    0.2302646   -3.6037583    1.5682657  1209133 
 7924000    1.4392958   -3.6046794   -2.0355285   0.23156894   -3.6046794    1.5691509  1209155 
 7925000    1.4366485   -3.6027139   -2.0364867   0.23430843   -3.6027139    1.5662272  1209184 
 7926000    1.4370985   -3.6036287    -2.036933   0.22975301   -3.6036287    1.5666957  1209201 
 7927000    1.4375966   -3.6039744   -2.0367616   0.23558799   -3.6039744    1.5672128  1209221 
 7928000     1.437697   -3.6035639   -2.0362662   0.23300191   -3.6035639    1.5672977  1209240 
 7929000    1.4372518   -3.6036078   -2.0368214   0.23393026   -3.6036078    1.5667864  1209260 
 7930000    1.4366817   -3.6031354   -2.0369886   0.23339972   -3.6031354    1.5661468  1209274 
 7931000    1.4366283   -3.6039564   -2.0378911   0.23373996   -3.6039564    1.5660653  1209292 
 7932000    1.4374047     -3.60525   -2.0383643   0.23230584     -3.60525    1.5668857  1209312 
 7933000    1.4358453    -3.603554   -2.0383927   0.23557832    -3.603554    1.5651613  1209331 
 7934000    1.4364969   -3.6042054   -2.0383598   0.23238254   -3.6042054    1.5658456  1209351 
 7935000    1.4361015   -3.6043863   -2.0390054   0.22972156   -3.6043863     1.565381  1209377 
 7936000    1.4362675   -3.6044711   -2.0389311    0.2317384   -3.6044711      1.56554  1209394 
 7937000    1.4365032   -3.6046887   -2.0389126   0.23381617   -3.6046887    1.5657761  1209410 
 7938000    1.4366547   -3.6042396   -2.0383255   0.23603982   -3.6042396    1.5659141  1209431 
 7939000    1.4360938   -3.6039754   -2.0387024   0.23178075   -3.6039754     1.565273  1209454 
 7940000    1.4362219   -3.6045492   -2.0391599    0.2332933   -3.6045492    1.5653893  1209472 
 7941000    1.4369697   -3.6050364   -2.0388657   0.23254102   -3.6050364    1.5661706  1209498 
 7942000     1.436726    -3.604485   -2.0386123   0.23519917    -3.604485    1.5658727  1209523 
 7943000    1.4381827   -3.6056285    -2.038198   0.23109788   -3.6056285    1.5674306  1209546 
 7944000     1.436485   -3.6043084   -2.0387528   0.23199397   -3.6043084    1.5655556  1209565 
 7945000    1.4375434   -3.6054394   -2.0387562   0.23011677   -3.6054394    1.5666833  1209585 
 7946000    1.4378746   -3.6054001   -2.0383819    0.2342081   -3.6054001    1.5670182  1209605 
 7947000    1.4379639   -3.6057751   -2.0386867   0.23242999   -3.6057751    1.5670884  1209626 
 7948000    1.4387633   -3.6064374   -2.0385103   0.22939996   -3.6064374    1.5679271  1209651 
 7949000    1.4382399   -3.6058237   -2.0385007   0.23144009   -3.6058237    1.5673231  1209677 
 7950000    1.4374772   -3.6060051   -2.0395391   0.23281165   -3.6060051     1.566466  1209697 
 7951000    1.4360373   -3.6048602   -2.0400047   0.22988571   -3.6048602    1.5648556  1209729 
 7952000    1.4371084   -3.6055673   -2.0395614   0.22743684   -3.6055673    1.5660059  1209742 
 7953000     1.437231    -3.605743   -2.0396333   0.22882531    -3.605743    1.5661097  1209765 
 7954000    1.4366158   -3.6052385   -2.0398237   0.23201354   -3.6052385    1.5654148  1209784 
 7955000    1.4380085   -3.6067757   -2.0398822   0.23354159   -3.6067757    1.5668935  1209814 
 7956000    1.4372311   -3.6053692   -2.0393525   0.23555536   -3.6053692    1.5660167  1209837 
 7957000    1.4366182   -3.6056232   -2.0402886   0.23119754   -3.6056232    1.5653346  1209848 
 7958000    1.4368852   -3.6057172   -2.0401189   0.22898764   -3.6057172    1.5655983  1209869 
 7959000     1.436996   -3.6063203   -2.0406361   0.22902638   -3.6063203    1.5656841  1209896 
 7960000    1.4358785   -3.6038722   -2.0394355   0.23906407   -3.6038722    1.5644368  1209919 
 7961000    1.4370007   -3.6050888    -2.039459   0.23497237   -3.6050888    1.5656298  1209942 
 7962000     1.437935   -3.6061855    -2.039569   0.23517961   -3.6061855    1.5666165  1209966 
 7963000    1.4371762   -3.6053423   -2.0395796     0.231812   -3.6053423    1.5657627  1209987 
 7964000    1.4376043   -3.6058523   -2.0396401   0.23488166   -3.6058523    1.5662122  1210000 
 7965000    1.4367365   -3.6050771   -2.0398387   0.23586675   -3.6050771    1.5652383  1210022 
 7966000    1.4371348   -3.6049837   -2.0393386   0.23409755   -3.6049837    1.5656451  1210043 
 7967000    1.4369636    -3.605604   -2.0401686   0.23724192    -3.605604    1.5654354  1210061 
 7968000     1.437609   -3.6059909   -2.0398731   0.23104723   -3.6059909    1.5661177  1210077 
 7969000     1.438431   -3.6061743   -2.0391806   0.23608401   -3.6061743    1.5669938  1210092 
 7970000    1.4383614   -3.6068824   -2.0399904   0.22846121   -3.6068824     1.566892  1210112 
 7971000    1.4379638   -3.6057178    -2.039299   0.23439497   -3.6057178    1.5664188  1210143 
 7972000    1.4377714   -3.6053131   -2.0391414   0.23706672   -3.6053131    1.5661716  1210172 
 7973000    1.4385909   -3.6063895   -2.0393562   0.23480868   -3.6063895    1.5670333  1210196 
 7974000    1.4383069    -3.606121    -2.039423   0.23238865    -3.606121     1.566698  1210216 
 7975000    1.4392029   -3.6066606   -2.0390163   0.23436184   -3.6066606    1.5676443  1210239 
 7976000    1.4393049   -3.6064233   -2.0386861    0.2373927   -3.6064233    1.5677372  1210253 
 7977000    1.4384561   -3.6062615    -2.039467   0.23323007   -3.6062615    1.5667945  1210267 
 7978000    1.4386559   -3.6067138   -2.0397211   0.23442126   -3.6067138    1.5669927  1210282 
 7979000    1.4386236   -3.6066274   -2.0397009   0.23393622   -3.6066274    1.5669265  1210306 
 7980000    1.4373907   -3.6049779   -2.0394188   0.24420665   -3.6049779     1.565559  1210325 
 7981000    1.4379143   -3.6060656   -2.0399583   0.23468125   -3.6060656    1.5661073  1210342 
 7982000    1.4380451   -3.6058897   -2.0396851   0.23476754   -3.6058897    1.5662045  1210377 
 7983000    1.4383941   -3.6064585   -2.0398855   0.23076882   -3.6064585     1.566573  1210386 
 7984000    1.4375016   -3.6052082   -2.0396319   0.24000634   -3.6052082    1.5655764  1210405 
 7985000    1.4390431   -3.6074645   -2.0402209   0.22993251   -3.6074645    1.5672435  1210414 
 7986000    1.4387404    -3.606626   -2.0397368   0.23513944    -3.606626    1.5668892  1210433 
 7987000    1.4382553   -3.6063866    -2.040054   0.23415175   -3.6063866    1.5663325  1210455 
 7988000    1.4381383   -3.6066428    -2.040461   0.23713459   -3.6066428    1.5661818  1210473 
 7989000    1.4391854   -3.6078821   -2.0405988   0.23622268   -3.6078821    1.5672833  1210503 
 7990000    1.4394004   -3.6078107   -2.0403244   0.23424211   -3.6078107    1.5674863  1210527 
 7991000    1.4380895   -3.6070328   -2.0410102   0.23596633   -3.6070328    1.5660225  1210555 
 7992000    1.4383164   -3.6071698   -2.0409261   0.23215413   -3.6071698    1.5662437  1210575 
 7993000    1.4384612   -3.6071813   -2.0408108   0.23650292   -3.6071813    1.5663704  1210599 
 7994000    1.4386127   -3.6076483   -2.0411427   0.23452349   -3.6076483    1.5665056  1210622 
 7995000     1.438336   -3.6072963   -2.0411217   0.23504373   -3.6072963    1.5661746  1210645 
 7996000    1.4378984   -3.6071013   -2.0414265   0.23668327   -3.6071013    1.5656748  1210663 
 7997000    1.4385417    -3.608261   -2.0419129   0.23641715    -3.608261     1.566348  1210684 
 7998000    1.4374433   -3.6077597   -2.0426424   0.23552427   -3.6077597    1.5651172  1210711 
 7999000    1.4379293   -3.6086635   -2.0430404   0.22816611   -3.6086635    1.5656231  1210729 
 8000000    1.4374008   -3.6081939   -2.0431772    0.2332696   -3.6081939    1.5650166  1210753 
Loop time of 18596.4 on 192 procs for 5000000 steps with 1210753 atoms

Performance: 116151.618 tau/day, 268.869 timesteps/s
99.4% CPU use with 192 MPI tasks x 1 OpenMP threads

MPI task timing breakdown:
Section |  min time  |  avg time  |  max time  |%varavg|  %CPU | %total
-----------------------------------------------------------------------
Pair    | 6798.3     | 8603.7     | 9466.4     | 707.2 |  99.3 | 46.27
Bond    | 3.4525     | 3.7124     | 4.0625     |   6.0 | 100.0 |  0.02
Neigh   | 3546.7     | 4134.1     | 4375.3     | 287.0 |  99.6 | 22.23
Comm    | 1905.1     | 3639.2     | 5664.5     |1251.8 |  99.2 | 19.57
Output  | 277.06     | 278.22     | 278.24     |   0.5 |  99.4 |  1.50
Modify  | 1277.4     | 1452       | 2502.2     | 830.5 |  99.4 |  7.81
Other   |            | 485.4      |            |       |       |  2.61

Nlocal:        6306.01 ave        6544 max        6142 min
Histogram: 8 28 32 29 30 22 24 11 6 2
Nghost:        6354.73 ave        6791 max        4795 min
Histogram: 22 10 0 0 0 0 0 0 54 106
Neighs:        192842.0 ave      204455 max      169424 min
Histogram: 6 6 3 2 6 33 44 40 36 16

Total # of neighbors = 37025571
Ave neighs/atom = 30.580615
Ave special neighs/atom = 0.0000000
Neighbor list builds = 505000
Dangerous builds = 450000

write_restart   restart_write.dat
System init for write_restart ...
write_data	data.write
System init for write_data ...
WARNING: Not all mixed pair coeffs generated from mixing. Use write_data with 'pair ij' option to store all pair coeffs. (src/write_data.cpp:312)

Total wall time: 5:10:01
