LAMMPS (29 Oct 2020)
  using 1 OpenMP thread(s) per MPI task
Created orthogonal box = (0.0000000 0.0000000 0.0000000) to (80.000000 80.000000 80.000000)
  2 by 4 by 4 MPI processor grid
Lattice spacing in x,y,z = 1.0000000 1.0000000 1.0000000
Created 512000 atoms
  create_atoms CPU = 0.026 seconds
512000 atoms in group solvent
Reading data file ...
  orthogonal box = (0.0000000 0.0000000 0.0000000) to (80.000000 80.000000 160.00000)
  2 by 2 by 8 MPI processor grid
Finding 1-2 1-3 1-4 neighbors ...
  special bond factors lj:    0.0      0.0      0.0     
  special bond factors coul:  0.0      0.0      0.0     
     0 = max # of 1-2 neighbors
     0 = max # of 1-3 neighbors
     0 = max # of 1-4 neighbors
     1 = max # of special neighbors
  special bonds CPU = 0.302 seconds
  read_data CPU = 0.327 seconds
Balancing ...
Neighbor list info ...
  update every 1 steps, delay 10 steps, check yes
  max neighbors/atom: 2000, page size: 100000
  master list distance cutoff = 2.9
  ghost atom cutoff = 2.9
  binsize = 1.45, bins = 56 56 111
  1 neighbor lists, perpetual/occasional/extra = 1 0 0
  (1) pair lj/cut/opt, perpetual
      attributes: half, newton on
      pair build: half/bin/newton
      stencil: half/bin/3d/newton
      bin: standard
 rebalancing time: 0.041 seconds
  iteration count = 5
  initial/final maximal load/proc = 32000.000 19200.000
  initial/final imbalance factor  = 2.0000000 1.2000000
  x cuts: 0.0000000 0.5 1.0000000
  y cuts: 0.0000000 0.5 1.0000000
  z cuts: 0.0000000 0.0625 0.12890625 0.1875 0.2578125 0.30859375 0.38671875 0.4375 1.0000000
WARNING: Ignoring 'compress yes' for molecular system (src/delete_atoms.cpp:125)
Deleted 19200 atoms, new total = 492800
WARNING: Ignoring 'compress yes' for molecular system (src/delete_atoms.cpp:125)
Deleted 0 atoms, new total = 492800
dynamic group thermo defined
New timer settings: style=full  mode=nosync  timeout=off
Setting up Verlet run ...
  Unit style    : lj
  Current step  : 0
  Time step     : 0.0025
Per MPI rank memory allocation (min/avg/max) = 21.45 | 22.19 | 22.73 Mbytes
Step Temp E_pair E_vdwl TotEng Press PotEng KinEng Volume 
       0   0.49998514   -3.2974116   -3.2974116   -2.5474355    8.3319627   -3.2974116   0.74997619      1024000 
    1000    1.4275823   -4.8132423   -4.8132423   -2.6718732    3.6877322   -4.8132423    2.1413691      1024000 
    2000    1.3667924    -4.862168    -4.862168   -2.8119835    2.4700267    -4.862168    2.0501845      1024000 
    3000    1.2646559   -4.8375697   -4.8375697   -2.9405897    1.6297266   -4.8375697      1.89698      1024000 
    4000    1.2124977    -4.848538    -4.848538   -3.0297951   0.71965958    -4.848538    1.8187429      1024000 
    5000    1.1425906   -4.7876679   -4.7876679   -3.0737856  0.080749173   -4.7876679    1.7138824      1024000 
    6000    1.0628565   -4.6834116   -4.6834116   -3.0891301  -0.25639272   -4.6834116    1.5942815      1024000 
    7000    1.0030611   -4.5957114   -4.5957114   -3.0911228  -0.35670368   -4.5957114    1.5045886      1024000 
    8000   0.98914466   -4.5746305   -4.5746305   -3.0909165   -0.2461568   -4.5746305     1.483714      1024000 
    9000    1.0017891   -4.5990641   -4.5990641   -3.0963834 -0.096717932   -4.5990641    1.5026807      1024000 
   10000    1.0080336   -4.6190765   -4.6190765   -3.1070292  -0.01196905   -4.6190765    1.5120473      1024000 
   11000    1.0085355   -4.6305285   -4.6305285   -3.1177283  0.011631662   -4.6305285    1.5128002      1024000 
   12000    1.0070013   -4.6386292   -4.6386292   -3.1281303  0.036860466   -4.6386292    1.5104989      1024000 
   13000     1.008707   -4.6510577   -4.6510577   -3.1380003  0.056168162   -4.6510577    1.5130574      1024000 
   14000    1.0079854   -4.6585365   -4.6585365   -3.1465615  0.084599197   -4.6585365     1.511975      1024000 
   15000    1.0072117   -4.6651859   -4.6651859   -3.1543714  0.090382281   -4.6651859    1.5108145      1024000 
   16000    1.0051194    -4.668611    -4.668611   -3.1609349  0.086435193    -4.668611    1.5076761      1024000 
   17000    1.0005864   -4.6675591   -4.6675591   -3.1666825  0.081976496   -4.6675591    1.5008766      1024000 
   18000    1.0015096   -4.6748008   -4.6748008   -3.1725395   0.10079047   -4.6748008    1.5022614      1024000 
   19000    1.0027799   -4.6819912   -4.6819912   -3.1778244   0.10256446   -4.6819912    1.5041668      1024000 
   20000    1.0031686   -4.6865225   -4.6865225   -3.1817726   0.11498222   -4.6865225    1.5047498      1024000 
   21000     1.003088   -4.6901965   -4.6901965   -3.1855676   0.11337644   -4.6901965    1.5046289      1024000 
   22000    1.0005199    -4.690124    -4.690124   -3.1893472   0.11312539    -4.690124    1.5007768      1024000 
   23000    1.0018287   -4.6951909   -4.6951909   -3.1924509   0.12705611   -4.6951909      1.50274      1024000 
   24000    1.0096929   -4.7109046   -4.7109046   -3.1963684   0.26555608   -4.7109046    1.5145362      1024000 
   25000    1.0219188   -4.7327416   -4.7327416   -3.1998665   0.72928148   -4.7327416     1.532875      1024000 
   26000    1.0342661   -4.7536702   -4.7536702   -3.2022743    1.0506181   -4.7536702     1.551396      1024000 
   27000    1.0466995   -4.7742307   -4.7742307   -3.2041847    1.3743069   -4.7742307    1.5700461      1024000 
   28000    1.0430795   -4.7710696   -4.7710696   -3.2064536    1.6635793   -4.7710696     1.564616      1024000 
   29000    1.0287566   -4.7526199   -4.7526199   -3.2094882    1.3252944   -4.7526199    1.5431317      1024000 
   30000    1.0028443   -4.7154372   -4.7154372   -3.2111738    1.0117341   -4.7154372    1.5042634      1024000 
   31000   0.98387205   -4.6874782   -4.6874782   -3.2116732   0.65456816   -4.6874782    1.4758051      1024000 
   32000   0.95439822   -4.6448356   -4.6448356   -3.2132411   0.37845078   -4.6448356    1.4315944      1024000 
   33000   0.91542963   -4.5885707   -4.5885707    -3.215429   0.18306097   -4.5885707    1.3731417      1024000 
   34000   0.87693334   -4.5324613   -4.5324613    -3.217064  0.023882905   -4.5324613    1.3153973      1024000 
   35000   0.84421194   -4.4849772   -4.4849772   -3.2186619 -0.070991039   -4.4849772    1.2663153      1024000 
   36000    0.8249253   -4.4578825   -4.4578825   -3.2204971  -0.11507995   -4.4578825    1.2373854      1024000 
   37000    0.8173557   -4.4482974   -4.4482974   -3.2222663  -0.10496257   -4.4482974    1.2260311      1024000 
   38000   0.82233939   -4.4576061   -4.4576061   -3.2240995 -0.078230093   -4.4576061    1.2335066      1024000 
   39000    0.8316373   -4.4733003   -4.4733003   -3.2258469 -0.036516008   -4.4733003    1.2474534      1024000 
   40000    0.8455347   -4.4953066   -4.4953066   -3.2270071  0.010899923   -4.4953066    1.2682995      1024000 
   41000   0.85703316   -4.5144133   -4.5144133   -3.2288662  0.056451987   -4.5144133    1.2855471      1024000 
   42000   0.86392163   -4.5266453   -4.5266453   -3.2307654  0.087145592   -4.5266453    1.2958798      1024000 
   43000   0.86595959   -4.5315675   -4.5315675   -3.2326308  0.097562427   -4.5315675    1.2989367      1024000 
   44000   0.86726001   -4.5349338   -4.5349338   -3.2340465    0.1010372   -4.5349338    1.3008874      1024000 
   45000   0.86662652   -4.5355472   -4.5355472     -3.23561  0.088287337   -4.5355472    1.2999371      1024000 
   46000   0.85859775    -4.525415    -4.525415    -3.237521  0.066843705    -4.525415     1.287894      1024000 
   47000   0.85417258   -4.5201156   -4.5201156   -3.2388593  0.050450343   -4.5201156    1.2812563      1024000 
   48000   0.85184636   -4.5184763   -4.5184763   -3.2407094  0.030784105   -4.5184763    1.2777669      1024000 
   49000    0.8501999   -4.5174631   -4.5174631   -3.2421658  0.031435402   -4.5174631    1.2752973      1024000 
   50000   0.85111316   -4.5201809   -4.5201809   -3.2435138  0.039183532   -4.5201809    1.2766671      1024000 
   51000   0.85200551   -4.5240398   -4.5240398   -3.2460341  0.045567508   -4.5240398    1.2780057      1024000 
   52000   0.85601551   -4.5321653   -4.5321653   -3.2481447  0.061474657   -4.5321653    1.2840207      1024000 
   53000   0.85950565   -4.5392121   -4.5392121   -3.2499562  0.081102139   -4.5392121    1.2892559      1024000 
   54000   0.86196028   -4.5449794   -4.5449794   -3.2520416  0.088093242   -4.5449794    1.2929378      1024000 
   55000   0.86369163   -4.5498587   -4.5498587   -3.2543239  0.096791753   -4.5498587    1.2955348      1024000 
   56000   0.86422562    -4.552782    -4.552782   -3.2564462   0.10564761    -4.552782    1.2963358      1024000 
   57000   0.86384638   -4.5555007   -4.5555007   -3.2597338     0.109435   -4.5555007    1.2957669      1024000 
   58000   0.86275918   -4.5577085   -4.5577085   -3.2635724    0.1001655   -4.5577085    1.2941361      1024000 
   59000   0.86163032   -4.5596673   -4.5596673   -3.2672245  0.098446884   -4.5596673    1.2924429      1024000 
   60000   0.86202801   -4.5639841   -4.5639841   -3.2709447   0.10956697   -4.5639841    1.2930394      1024000 
   61000    0.8634988    -4.570232    -4.570232   -3.2749864   0.12592732    -4.570232    1.2952456      1024000 
   62000   0.86859298     -4.58293     -4.58293   -3.2800431   0.15021938     -4.58293    1.3028868      1024000 
   63000    0.8720913   -4.5932482   -4.5932482   -3.2851139   0.19137527   -4.5932482    1.3081343      1024000 
   64000   0.87662098   -4.6063124   -4.6063124   -3.2913836   0.22315639   -4.6063124    1.3149288      1024000 
   65000   0.88068324   -4.6203002   -4.6203002    -3.299278   0.26606002   -4.6203002    1.3210222      1024000 
   66000    0.8868507   -4.6378778   -4.6378778   -3.3076044   0.33598888   -4.6378778    1.3302733      1024000 
   67000   0.88844721   -4.6503475   -4.6503475   -3.3176794   0.39056316   -4.6503475    1.3326681      1024000 
   68000   0.88671021   -4.6605548   -4.6605548   -3.3304922   0.39488383   -4.6605548    1.3300626      1024000 
   69000   0.87611379   -4.6585617   -4.6585617   -3.3443937   0.36571332   -4.6585617     1.314168      1024000 
   70000   0.86433907   -4.6513154   -4.6513154   -3.3548094   0.31660752   -4.6513154     1.296506      1024000 
   71000   0.85144966   -4.6461348   -4.6461348    -3.368963    0.3385953   -4.6461348    1.2771719      1024000 
   72000   0.83821045   -4.6519208   -4.6519208   -3.3946077   0.42152622   -4.6519208    1.2573131      1024000 
   73000   0.82805561   -4.6646679   -4.6646679    -3.422587   0.46113452   -4.6646679    1.2420809      1024000 
   74000   0.82447656   -4.6839915   -4.6839915   -3.4472792   0.45164063   -4.6839915    1.2367123      1024000 
   75000   0.82276677   -4.7018102   -4.7018102   -3.4676625   0.43869342   -4.7018102    1.2341477      1024000 
   76000   0.82614681   -4.7222888   -4.7222888    -3.483071   0.43202442   -4.7222888    1.2392177      1024000 
   77000    0.8306954   -4.7410594   -4.7410594   -3.4950188   0.44256908   -4.7410594    1.2460406      1024000 
   78000   0.83432049   -4.7558404   -4.7558404   -3.5043622   0.46421308   -4.7558404    1.2514782      1024000 
   79000    0.8259854   -4.7499903   -4.7499903   -3.5110147   0.39394662   -4.7499903    1.2389756      1024000 
   80000    0.8062873   -4.7267256   -4.7267256   -3.5172971   0.28058992   -4.7267256    1.2094285      1024000 
   81000   0.78646738    -4.702279    -4.702279   -3.5225803   0.19081442    -4.702279    1.1796987      1024000 
   82000   0.76798613   -4.6794122   -4.6794122   -3.5274354   0.12901267   -4.6794122    1.1519769      1024000 
   83000    0.7529484   -4.6627582   -4.6627582   -3.5333379   0.07816375   -4.6627582    1.1294203      1024000 
   84000   0.73869315   -4.6479205   -4.6479205    -3.539883  0.030569904   -4.6479205    1.1080375      1024000 
   85000   0.72492861    -4.633536    -4.633536   -3.5461453 -0.024207417    -4.633536    1.0873907      1024000 
   86000   0.71567591   -4.6237923   -4.6237923   -3.5502806 -0.096278238   -4.6237923    1.0735117      1024000 
   87000   0.70683406   -4.6117811   -4.6117811   -3.5515321  -0.15184489   -4.6117811    1.0602489      1024000 
   88000   0.69916136   -4.5994728   -4.5994728   -3.5507328   -0.1927157   -4.5994728    1.0487399      1024000 
   89000   0.69321548   -4.5874696   -4.5874696   -3.5476485  -0.22025246   -4.5874696    1.0398211      1024000 
   90000   0.69018608   -4.5795386   -4.5795386   -3.5442616  -0.23703442   -4.5795386     1.035277      1024000 
   91000   0.68782151   -4.5728238   -4.5728238   -3.5410936  -0.23256987   -4.5728238    1.0317302      1024000 
   92000   0.68910992   -4.5719136   -4.5719136   -3.5382508  -0.23020701   -4.5719136    1.0336628      1024000 
   93000    0.6913778   -4.5737552   -4.5737552   -3.5366906  -0.20638116   -4.5737552    1.0370646      1024000 
   94000   0.69586456   -4.5802206   -4.5802206   -3.5364259   -0.1810575   -4.5802206    1.0437947      1024000 
   95000   0.70172094   -4.5909661   -4.5909661   -3.5383868  -0.13818701   -4.5909661    1.0525793      1024000 
   96000   0.70802246    -4.604118    -4.604118   -3.5420865 -0.095746729    -4.604118    1.0620315      1024000 
   97000   0.71535522   -4.6207549   -4.6207549   -3.5477243  -0.05735103   -4.6207549    1.0730306      1024000 
   98000   0.72138537   -4.6357352   -4.6357352   -3.5536593 -0.024444771   -4.6357352    1.0820759      1024000 
   99000   0.72461566   -4.6472352   -4.6472352   -3.5603139 0.0026454718   -4.6472352    1.0869213      1024000 
  100000   0.72804547   -4.6579453   -4.6579453   -3.5658793 0.0098004594   -4.6579453     1.092066      1024000 
  101000   0.72921326   -4.6646919   -4.6646919   -3.5708743   0.01020804   -4.6646919    1.0938177      1024000 
  102000   0.72663937   -4.6639774   -4.6639774   -3.5740206 0.00030013774   -4.6639774    1.0899568      1024000 
  103000   0.72479358   -4.6642943   -4.6642943   -3.5771061 -0.016473664   -4.6642943    1.0871882      1024000 
  104000    0.7208351   -4.6612156   -4.6612156   -3.5799651 -0.025934776   -4.6612156    1.0812505      1024000 
  105000   0.71786234   -4.6599251   -4.6599251   -3.5831338 -0.030912281   -4.6599251    1.0767913      1024000 
  106000   0.71692318   -4.6613186   -4.6613186    -3.585936 -0.034045779   -4.6613186    1.0753826      1024000 
  107000   0.71602488   -4.6633587   -4.6633587   -3.5893236 -0.038010382   -4.6633587    1.0740351      1024000 
  108000   0.71662463   -4.6680126   -4.6680126   -3.5930778 -0.025209637   -4.6680126    1.0749348      1024000 
  109000   0.71964754   -4.6763024   -4.6763024   -3.5968333 -0.027948202   -4.6763024    1.0794691      1024000 
  110000   0.71943854   -4.6798729   -4.6798729   -3.6007172  -0.01014982   -4.6798729    1.0791556      1024000 
  111000   0.72127533   -4.6860164   -4.6860164   -3.6041056 -0.0015219259   -4.6860164    1.0819108      1024000 
  112000   0.72301372   -4.6921187   -4.6921187   -3.6076003 -0.00094602113   -4.6921187    1.0845184      1024000 
  113000   0.72436967   -4.6974468   -4.6974468   -3.6108945 0.0034303067   -4.6974468    1.0865523      1024000 
  114000   0.72365606   -4.6994112   -4.6994112   -3.6139293 0.0057870561   -4.6994112    1.0854819      1024000 
  115000   0.72187746   -4.7011843   -4.7011843   -3.6183703 0.0070966369   -4.7011843     1.082814      1024000 
  116000    0.7211816   -4.7035879   -4.7035879   -3.6218177 -0.0059266287   -4.7035879    1.0817702      1024000 
  117000   0.72004999   -4.7052821   -4.7052821   -3.6252093 -0.0049935522   -4.7052821    1.0800728      1024000 
  118000   0.71839165   -4.7063896   -4.7063896   -3.6288044 -0.012414759   -4.7063896    1.0775853      1024000 
  119000   0.71680524   -4.7075821   -4.7075821   -3.6323764 -0.015204349   -4.7075821    1.0752057      1024000 
  120000   0.71615743    -4.710656    -4.710656   -3.6364221 -0.011920774    -4.710656     1.074234      1024000 
  121000   0.71808966   -4.7169446   -4.7169446   -3.6398123 -0.013868549   -4.7169446    1.0771323      1024000 
  122000   0.71824731   -4.7204447   -4.7204447   -3.6430759 -0.0050070704   -4.7204447    1.0773688      1024000 
  123000   0.71938286    -4.725301    -4.725301   -3.6462289  0.001429398    -4.725301    1.0790721      1024000 
  124000     0.720419   -4.7308583   -4.7308583    -3.650232 0.0076358163   -4.7308583    1.0806263      1024000 
  125000   0.72137242   -4.7368252   -4.7368252   -3.6547688 0.0037991247   -4.7368252    1.0820564      1024000 
  126000   0.72167794   -4.7403953   -4.7403953   -3.6578805 0.0042428163   -4.7403953    1.0825147      1024000 
  127000   0.72124428   -4.7438366   -4.7438366   -3.6619724  0.014357987   -4.7438366    1.0818642      1024000 
  128000   0.72280103   -4.7496131   -4.7496131   -3.6654137  0.018660228   -4.7496131    1.0841994      1024000 
  129000   0.72212414   -4.7526837   -4.7526837   -3.6694997  0.016882872   -4.7526837     1.083184      1024000 
  130000   0.72162013   -4.7559939   -4.7559939   -3.6735659   0.02187668   -4.7559939     1.082428      1024000 
  131000   0.72170016   -4.7610755   -4.7610755   -3.6785274  0.020753762   -4.7610755     1.082548      1024000 
  132000   0.72128131   -4.7649893   -4.7649893   -3.6830695  0.022075862   -4.7649893    1.0819198      1024000 
  133000   0.72178387   -4.7694887   -4.7694887   -3.6868151   0.02320204   -4.7694887    1.0826736      1024000 
  134000   0.72065732   -4.7719154   -4.7719154   -3.6909316  0.027341687   -4.7719154    1.0809838      1024000 
  135000   0.72097609   -4.7766758   -4.7766758   -3.6952138  0.023427445   -4.7766758    1.0814619      1024000 
  136000   0.72058039   -4.7805875   -4.7805875   -3.6997192  0.023105547   -4.7805875    1.0808684      1024000 
  137000    0.7207365    -4.784552    -4.784552   -3.7034494   0.02424111    -4.784552    1.0811026      1024000 
  138000   0.72123809   -4.7893569   -4.7893569    -3.707502  0.026846015   -4.7893569    1.0818549      1024000 
  139000   0.72097436   -4.7937447   -4.7937447   -3.7122854  0.027751878   -4.7937447    1.0814593      1024000 
  140000   0.72032112   -4.7979334   -4.7979334   -3.7174539  0.032348209   -4.7979334    1.0804795      1024000 
  141000   0.72048894   -4.8023341   -4.8023341   -3.7216029  0.032215748   -4.8023341    1.0807312      1024000 
  142000   0.72025702   -4.8064842   -4.8064842   -3.7261009   0.03520691   -4.8064842    1.0803833      1024000 
  143000   0.72075463   -4.8122415   -4.8122415   -3.7311118  0.044581348   -4.8122415    1.0811297      1024000 
  144000    0.7211636   -4.8176025   -4.8176025   -3.7358593  0.046511795   -4.8176025    1.0817432      1024000 
  145000   0.72123811   -4.8225886   -4.8225886   -3.7407336   0.04946722   -4.8225886     1.081855      1024000 
  146000   0.72090255   -4.8268066   -4.8268066    -3.745455  0.047450175   -4.8268066    1.0813516      1024000 
  147000   0.71917937    -4.829431    -4.829431   -3.7506641  0.044734762    -4.829431    1.0787669      1024000 
  148000   0.71793275   -4.8326366   -4.8326366   -3.7557397  0.043605104   -4.8326366    1.0768969      1024000 
  149000   0.71763689   -4.8370264   -4.8370264   -3.7605733  0.031565892   -4.8370264    1.0764532      1024000 
  150000   0.71527942   -4.8383755   -4.8383755   -3.7654585  0.033592177   -4.8383755    1.0729169      1024000 
  151000   0.71394488   -4.8415892   -4.8415892   -3.7706741  0.019273454   -4.8415892    1.0709151      1024000 
  152000   0.71139821   -4.8425859   -4.8425859   -3.7754908   0.01208252   -4.8425859    1.0670951      1024000 
  153000   0.70993926    -4.844491    -4.844491   -3.7795843 0.0087836208    -4.844491    1.0649067      1024000 
  154000   0.70970301   -4.8487267   -4.8487267   -3.7841744 -0.0096806212   -4.8487267    1.0645524      1024000 
  155000   0.70728224   -4.8488142   -4.8488142    -3.787893 -0.009514637   -4.8488142    1.0609212      1024000 
  156000   0.70625832   -4.8505453   -4.8505453   -3.7911599 -0.011437787   -4.8505453    1.0593853      1024000 
  157000   0.70500704   -4.8527899   -4.8527899   -3.7952814 -0.020142221   -4.8527899    1.0575084      1024000 
  158000   0.70409276   -4.8551056   -4.8551056   -3.7989686 -0.023723669   -4.8551056     1.056137      1024000 
  159000   0.70245981   -4.8569755   -4.8569755   -3.8032879 -0.026232554   -4.8569755    1.0536876      1024000 
  160000   0.70143776   -4.8589467   -4.8589467   -3.8067922 -0.027473769   -4.8589467    1.0521545      1024000 
  161000   0.70168739    -4.862943    -4.862943    -3.810414 -0.027405449    -4.862943    1.0525289      1024000 
  162000   0.70230367   -4.8678435   -4.8678435   -3.8143901 -0.031199477   -4.8678435    1.0534534      1024000 
  163000    0.7018287   -4.8707479   -4.8707479    -3.818007 -0.024064741   -4.8707479    1.0527409      1024000 
  164000   0.70192593   -4.8745444   -4.8745444   -3.8216576  -0.02326456   -4.8745444    1.0528868      1024000 
  165000   0.70280112   -4.8789376   -4.8789376   -3.8247381 -0.020544867   -4.8789376    1.0541995      1024000 
  166000   0.70253995   -4.8829804   -4.8829804   -3.8291726 -0.0099593053   -4.8829804    1.0538078      1024000 
  167000   0.70453066   -4.8894191   -4.8894191   -3.8326253 -0.0085750726   -4.8894191    1.0567938      1024000 
  168000   0.70466635   -4.8943303   -4.8943303   -3.8373329 0.00070984844   -4.8943303    1.0569974      1024000 
  169000   0.70456522   -4.8984844   -4.8984844   -3.8416388 0.0031214734   -4.8984844    1.0568457      1024000 
  170000   0.70611219   -4.9043525   -4.9043525   -3.8451864 0.0072966947   -4.9043525    1.0591661      1024000 
  171000   0.70690665   -4.9084085   -4.9084085   -3.8480507  0.014652542   -4.9084085    1.0603578      1024000 
  172000   0.70666268   -4.9124229   -4.9124229   -3.8524311  0.017787896   -4.9124229    1.0599919      1024000 
  173000   0.70639257   -4.9161279   -4.9161279   -3.8565412  0.026874059   -4.9161279    1.0595867      1024000 
  174000   0.70709039   -4.9210359   -4.9210359   -3.8604025  0.030775637   -4.9210359    1.0606334      1024000 
  175000   0.70718018   -4.9254889   -4.9254889   -3.8647208  0.026507038   -4.9254889    1.0607681      1024000 
  176000    0.7070502   -4.9288013   -4.9288013   -3.8682282  0.031232073   -4.9288013    1.0605731      1024000 
  177000   0.70591231   -4.9317553   -4.9317553    -3.872889  0.024516123   -4.9317553    1.0588663      1024000 
  178000   0.70482019   -4.9335493   -4.9335493   -3.8763212  0.024042319   -4.9335493    1.0572281      1024000 
  179000   0.70356656   -4.9353904   -4.9353904   -3.8800427  0.018887369   -4.9353904    1.0553477      1024000 
  180000     0.702601   -4.9375068   -4.9375068   -3.8836074  0.012877442   -4.9375068    1.0538994      1024000 
  181000   0.70145316   -4.9394138   -4.9394138   -3.8872362 0.0086634061   -4.9394138    1.0521776      1024000 
  182000   0.70051857   -4.9407947   -4.9407947    -3.890019   0.00434026   -4.9407947    1.0507757      1024000 
  183000   0.69856309   -4.9415661   -4.9415661   -3.8937236 3.433243e-05   -4.9415661    1.0478425      1024000 
  184000     0.697563   -4.9431193   -4.9431193   -3.8967769 -0.0066119273   -4.9431193    1.0463424      1024000 
  185000    0.6965328   -4.9441671   -4.9441671     -3.89937 -0.012295934   -4.9441671    1.0447971      1024000 
  186000   0.69458398   -4.9443633   -4.9443633   -3.9024895 -0.014392493   -4.9443633    1.0418739      1024000 
  187000   0.69461519   -4.9469596   -4.9469596   -3.9050389 -0.014525397   -4.9469596    1.0419207      1024000 
  188000   0.69293611   -4.9472925   -4.9472925   -3.9078905 -0.022364183   -4.9472925    1.0394021      1024000 
  189000   0.69345417   -4.9511307   -4.9511307   -3.9109516 -0.029466609   -4.9511307    1.0401791      1024000 
  190000   0.69268068   -4.9521942   -4.9521942   -3.9131753 -0.030298269   -4.9521942    1.0390189      1024000 
  191000   0.69211826   -4.9534513   -4.9534513    -3.915276 -0.023267822   -4.9534513    1.0381753      1024000 
  192000   0.69265938   -4.9572435   -4.9572435   -3.9182565 -0.030044172   -4.9572435     1.038987      1024000 
  193000   0.69286265   -4.9606469   -4.9606469    -3.921355 -0.025137726   -4.9606469    1.0392919      1024000 
  194000   0.69289912   -4.9632205   -4.9632205   -3.9238739  -0.01995108   -4.9632205    1.0393466      1024000 
  195000   0.69396994   -4.9673186   -4.9673186   -3.9263658  -0.01309897   -4.9673186    1.0409528      1024000 
  196000   0.69450948   -4.9706948   -4.9706948   -3.9289327 -0.013602671   -4.9706948    1.0417621      1024000 
  197000   0.69426223   -4.9731976   -4.9731976   -3.9318063 -0.00042712549   -4.9731976    1.0413912      1024000 
  198000   0.69467796   -4.9770464   -4.9770464   -3.9350315 0.0015660979   -4.9770464    1.0420148      1024000 
  199000   0.69588191   -4.9812122   -4.9812122   -3.9373914 0.0063319767   -4.9812122    1.0438207      1024000 
  200000   0.69512111   -4.9824368   -4.9824368   -3.9397573  0.016985039   -4.9824368    1.0426796      1024000 
  201000   0.69595714   -4.9873699   -4.9873699   -3.9434364  0.016940905   -4.9873699    1.0439336      1024000 
  202000   0.69682851   -4.9915964   -4.9915964   -3.9463558  0.016521019   -4.9915964    1.0452406      1024000 
  203000   0.69601819   -4.9934611   -4.9934611   -3.9494359  0.021903956   -4.9934611    1.0440252      1024000 
  204000   0.69650153   -4.9970054   -4.9970054   -3.9522552  0.021735227   -4.9970054    1.0447502      1024000 
  205000   0.69620736   -4.9996439   -4.9996439    -3.955335  0.019822513   -4.9996439    1.0443089      1024000 
  206000    0.6948578   -5.0000021   -5.0000021   -3.9577175  0.021966182   -5.0000021    1.0422846      1024000 
  207000   0.69647279   -5.0052726   -5.0052726   -3.9605656  0.014501317   -5.0052726    1.0447071      1024000 
  208000   0.69394507   -5.0042575   -5.0042575    -3.963342  0.016399559   -5.0042575    1.0409155      1024000 
  209000   0.69241108   -5.0052833   -5.0052833   -3.9666688  0.013711992   -5.0052833    1.0386145      1024000 
  210000    0.6907011   -5.0063497   -5.0063497   -3.9703001 0.0082817209   -5.0063497    1.0360495      1024000 
  211000   0.68941433   -5.0071092   -5.0071092   -3.9729898 5.7018364e-06   -5.0071092    1.0341194      1024000 
  212000   0.68993931   -5.0097179   -5.0097179    -3.974811 -0.0081634139   -5.0097179    1.0349069      1024000 
  213000   0.68844822   -5.0100202   -5.0100202     -3.97735 -0.013432725   -5.0100202    1.0326702      1024000 
  214000   0.68675349   -5.0100296   -5.0100296   -3.9799014 -0.010528154   -5.0100296    1.0301281      1024000 
  215000   0.68682563   -5.0131485   -5.0131485   -3.9829121 -0.017324659   -5.0131485    1.0302364      1024000 
  216000   0.68559979   -5.0140331   -5.0140331   -3.9856355 -0.021500581   -5.0140331    1.0283976      1024000 
  217000   0.68599746   -5.0165654   -5.0165654   -3.9875713 -0.024451155   -5.0165654    1.0289941      1024000 
  218000   0.68437775    -5.016067    -5.016067   -3.9895025 -0.023037383    -5.016067    1.0265645      1024000 
  219000   0.68351772   -5.0163223   -5.0163223   -3.9910478 -0.018916893   -5.0163223    1.0252745      1024000 
  220000    0.6853389   -5.0212173   -5.0212173   -3.9932111  -0.02159169   -5.0212173    1.0280063      1024000 
  221000   0.68473848   -5.0224245   -5.0224245   -3.9953189 -0.015432803   -5.0224245    1.0271056      1024000 
  222000   0.68529082   -5.0259013   -5.0259013   -3.9979672 -0.013405713   -5.0259013    1.0279341      1024000 
  223000   0.68570114   -5.0290402   -5.0290402   -4.0004906 -0.0080753414   -5.0290402    1.0285496      1024000 
  224000    0.6852862   -5.0311697   -5.0311697   -4.0032425 -0.0046785849   -5.0311697    1.0279272      1024000 
  225000   0.68652617   -5.0352263   -5.0352263   -4.0054391 -0.0020320476   -5.0352263    1.0297872      1024000 
  226000   0.68789153    -5.039542    -5.039542   -4.0077068  0.001362282    -5.039542    1.0318352      1024000 
  227000   0.68691573   -5.0409205   -5.0409205    -4.010549 0.0095044183   -5.0409205    1.0303715      1024000 
  228000   0.68790469   -5.0445829   -5.0445829    -4.012728  0.015077637   -5.0445829    1.0318549      1024000 
  229000   0.68746981   -5.0470097   -5.0470097   -4.0158071  0.015695106   -5.0470097    1.0312026      1024000 
  230000   0.68654831    -5.048092    -5.048092   -4.0182716   0.01856172    -5.048092    1.0298204      1024000 
  231000   0.68737198   -5.0510734   -5.0510734   -4.0200175  0.017138248   -5.0510734    1.0310559      1024000 
  232000   0.68679187    -5.052291    -5.052291   -4.0221053  0.020874907    -5.052291    1.0301857      1024000 
  233000   0.68724118   -5.0548436   -5.0548436    -4.023984  0.016426677   -5.0548436    1.0308597      1024000 
  234000   0.68568143   -5.0554711   -5.0554711   -4.0269511  0.014609345   -5.0554711    1.0285201      1024000 
  235000   0.68469526    -5.056626    -5.056626   -4.0295852 0.0078404918    -5.056626    1.0270408      1024000 
  236000   0.68397236   -5.0581864   -5.0581864   -4.0322299 0.0033392744   -5.0581864    1.0259565      1024000 
  237000   0.68200915   -5.0578419   -5.0578419   -4.0348302 -0.0019098171   -5.0578419    1.0230116      1024000 
  238000   0.68050166   -5.0576462   -5.0576462   -4.0368958 -0.0028726299   -5.0576462    1.0207504      1024000 
  239000   0.67959531   -5.0581912   -5.0581912   -4.0388003  -0.01092358   -5.0581912    1.0193909      1024000 
  240000   0.67976169   -5.0599436   -5.0599436   -4.0403031 -0.011609341   -5.0599436    1.0196405      1024000 
  241000   0.67948626   -5.0607109   -5.0607109   -4.0414835 -0.021528379   -5.0607109    1.0192273      1024000 
  242000   0.67818106   -5.0605236   -5.0605236   -4.0432541 -0.017836534   -5.0605236    1.0172695      1024000 
  243000    0.6769212   -5.0614148   -5.0614148    -4.046035 -0.021427599   -5.0614148    1.0153797      1024000 
  244000   0.67784054   -5.0639987   -5.0639987   -4.0472399 -0.023951687   -5.0639987    1.0167587      1024000 
  245000    0.6770753   -5.0645855   -5.0645855   -4.0489746 -0.019450032   -5.0645855    1.0156109      1024000 
  246000   0.67711709   -5.0666172   -5.0666172   -4.0509436 -0.018319021   -5.0666172    1.0156736      1024000 
  247000   0.67716965   -5.0683992   -5.0683992   -4.0526468 -0.013366523   -5.0683992    1.0157524      1024000 
  248000    0.6775368   -5.0707992   -5.0707992    -4.054496 -0.011441197   -5.0707992    1.0163031      1024000 
  249000   0.67889331   -5.0737037   -5.0737037   -4.0553658 -0.0062524952   -5.0737037    1.0183379      1024000 
  250000   0.67979514   -5.0766851   -5.0766851   -4.0569945 -0.0040475548   -5.0766851    1.0196906      1024000 
  251000   0.67924439   -5.0774988   -5.0774988   -4.0586343 0.0048909468   -5.0774988    1.0188645      1024000 
  252000   0.67959481   -5.0804715   -5.0804715   -4.0610814  0.010801722   -5.0804715    1.0193902      1024000 
  253000   0.68000975   -5.0834379   -5.0834379   -4.0634254  0.011788775   -5.0834379    1.0200126      1024000 
  254000   0.68039538   -5.0853191   -5.0853191   -4.0647281  0.015407772   -5.0853191     1.020591      1024000 
  255000   0.68040766   -5.0878017   -5.0878017   -4.0671923  0.012055817   -5.0878017    1.0206094      1024000 
  256000    0.6796196   -5.0889772   -5.0889772   -4.0695499  0.017164733   -5.0889772    1.0194273      1024000 
  257000   0.68016778    -5.091686    -5.091686   -4.0714364  0.016194641    -5.091686    1.0202496      1024000 
  258000   0.67945541   -5.0926921   -5.0926921    -4.073511  0.016442268   -5.0926921    1.0191811      1024000 
  259000   0.67993665   -5.0956729   -5.0956729     -4.07577 0.0088231462   -5.0956729    1.0199029      1024000 
  260000   0.67798784    -5.094851    -5.094851   -4.0778713  0.013177222    -5.094851    1.0169797      1024000 
  261000   0.67790623   -5.0958399   -5.0958399   -4.0789826 0.0080104229   -5.0958399    1.0168573      1024000 
  262000   0.67638048   -5.0952775   -5.0952775   -4.0807088 0.0066162899   -5.0952775    1.0145687      1024000 
  263000   0.67634626   -5.0967784   -5.0967784    -4.082261 -0.0016879994   -5.0967784    1.0145173      1024000 
  264000   0.67541935   -5.0977014   -5.0977014   -4.0845745 -0.0064385847   -5.0977014     1.013127      1024000 
  265000   0.67385904   -5.0969876   -5.0969876   -4.0862011 -0.0055662865   -5.0969876    1.0107865      1024000 
  266000   0.67351788   -5.0981108   -5.0981108    -4.087836 -0.010430482   -5.0981108    1.0102748      1024000 
  267000   0.67315227   -5.0989603   -5.0989603   -4.0892339 -0.016626209   -5.0989603    1.0097264      1024000 
  268000   0.67226856   -5.0994286   -5.0994286   -4.0910278 -0.014140697   -5.0994286    1.0084008      1024000 
  269000   0.67142205   -5.0998104   -5.0998104   -4.0926794 -0.014997416   -5.0998104     1.007131      1024000 
  270000   0.67078814   -5.1011475   -5.1011475   -4.0949674 -0.017412786   -5.1011475    1.0061802      1024000 
  271000   0.67173198   -5.1038732   -5.1038732   -4.0962773 -0.014003248   -5.1038732    1.0075959      1024000 
  272000   0.67204286   -5.1054377   -5.1054377   -4.0973755 -0.0099094029   -5.1054377    1.0080622      1024000 
  273000   0.67065933   -5.1060145   -5.1060145   -4.1000276 -0.0074296604   -5.1060145    1.0059869      1024000 
  274000   0.67244757   -5.1100395   -5.1100395   -4.1013702 -0.005480433   -5.1100395    1.0086693      1024000 
  275000   0.67202799   -5.1110619   -5.1110619    -4.103022 -0.0020173975   -5.1110619    1.0080399      1024000 
  276000   0.67302774   -5.1144039   -5.1144039   -4.1048644 0.00015867846   -5.1144039    1.0095396      1024000 
  277000   0.67349564   -5.1165374   -5.1165374    -4.106296 0.0026754686   -5.1165374    1.0102414      1024000 
  278000   0.67391717   -5.1191409   -5.1191409   -4.1082672  0.010130989   -5.1191409    1.0108737      1024000 
  279000   0.67378446   -5.1204633   -5.1204633   -4.1097886   0.01175359   -5.1204633    1.0106746      1024000 
  280000   0.67544566   -5.1233505   -5.1233505   -4.1101841  0.012230096   -5.1233505    1.0131664      1024000 
  281000   0.67407834   -5.1240943   -5.1240943   -4.1129789  0.012796883   -5.1240943    1.0111155      1024000 
  282000   0.67316995   -5.1246631   -5.1246631   -4.1149102    0.0146797   -5.1246631    1.0097529      1024000 
  283000   0.67276475   -5.1263054   -5.1263054   -4.1171603  0.013189389   -5.1263054    1.0091451      1024000 
  284000   0.67311583   -5.1279451   -5.1279451   -4.1182734   0.01186821   -5.1279451    1.0096717      1024000 
  285000   0.67192273   -5.1276269   -5.1276269   -4.1197448  0.013546848   -5.1276269     1.007882      1024000 
  286000   0.67006065    -5.127028    -5.127028    -4.121939 0.0083180248    -5.127028    1.0050889      1024000 
  287000   0.67009234   -5.1288857   -5.1288857   -4.1237493    0.0025477   -5.1288857    1.0051365      1024000 
  288000   0.66936156    -5.128958    -5.128958   -4.1249177 -0.00088755642    -5.128958    1.0040403      1024000 
  289000    0.6688571    -5.129127    -5.129127   -4.1258434 -0.0012852952    -5.129127    1.0032836      1024000 
  290000   0.66846167    -5.130453    -5.130453   -4.1277626 -0.008329956    -5.130453    1.0026905      1024000 
  291000    0.6683398   -5.1310318   -5.1310318   -4.1285242 -0.0076789557   -5.1310318    1.0025077      1024000 
  292000   0.66727196   -5.1316655   -5.1316655   -4.1307596 -0.012133155   -5.1316655    1.0009059      1024000 
  293000   0.66565611    -5.130493    -5.130493   -4.1320109 -0.010425514    -5.130493   0.99848214      1024000 
  294000   0.66669817    -5.132434    -5.132434   -4.1323888 -0.013891398    -5.132434    1.0000452      1024000 
  295000   0.66580804   -5.1330239   -5.1330239   -4.1343138 -0.012540243   -5.1330239   0.99871003      1024000 
  296000   0.66449962   -5.1334667   -5.1334667   -4.1367193 -0.0092773661   -5.1334667    0.9967474      1024000 
  297000    0.6663341   -5.1375796   -5.1375796   -4.1380805 -0.012502239   -5.1375796   0.99949913      1024000 
  298000   0.66704221   -5.1398262   -5.1398262    -4.139265  -0.01315464   -5.1398262    1.0005613      1024000 
  299000    0.6668729   -5.1409553   -5.1409553    -4.140648 -0.0044501299   -5.1409553    1.0003073      1024000 
  300000   0.66742819   -5.1433299   -5.1433299   -4.1421896 -0.0017801788   -5.1433299    1.0011403      1024000 
  301000   0.66732918   -5.1446432   -5.1446432   -4.1436515  0.000441364   -5.1446432    1.0009917      1024000 
  302000   0.66772745   -5.1471475   -5.1471475   -4.1455583 0.0067220088   -5.1471475    1.0015891      1024000 
  303000   0.66774709   -5.1487952   -5.1487952   -4.1471765 0.0068840982   -5.1487952    1.0016186      1024000 
  304000   0.66843041   -5.1513025   -5.1513025   -4.1486589 0.0094345385   -5.1513025    1.0026436      1024000 
  305000   0.66820078   -5.1521749   -5.1521749   -4.1498758  0.014255966   -5.1521749    1.0022991      1024000 
  306000   0.66786682   -5.1540003   -5.1540003   -4.1522021  0.012217785   -5.1540003    1.0017982      1024000 
  307000   0.66672387   -5.1529712   -5.1529712   -4.1528874  0.019324541   -5.1529712    1.0000838      1024000 
  308000   0.66930595   -5.1582131   -5.1582131   -4.1542562  0.008444744   -5.1582131    1.0039569      1024000 
  309000   0.66808537   -5.1585913   -5.1585913   -4.1564653 0.0074442068   -5.1585913     1.002126      1024000 
  310000   0.66708077    -5.158844    -5.158844   -4.1582249 0.0043170277    -5.158844    1.0006191      1024000 
  311000   0.66609849   -5.1592536   -5.1592536   -4.1601079  0.002451304   -5.1592536    0.9991457      1024000 
  312000   0.66400282   -5.1578261   -5.1578261   -4.1618239 0.0079796023   -5.1578261   0.99600221      1024000 
  313000   0.66431125   -5.1597595   -5.1597595   -4.1632947 0.0011319885   -5.1597595   0.99646485      1024000 
  314000   0.66441822   -5.1609541   -5.1609541   -4.1643287 -0.0015741159   -5.1609541   0.99662531      1024000 
  315000   0.66370801   -5.1611584   -5.1611584   -4.1655984 -0.0061191799   -5.1611584   0.99555999      1024000 
  316000   0.66426228   -5.1622496   -5.1622496   -4.1658582 -0.0090049545   -5.1622496    0.9963914      1024000 
  317000   0.66280324   -5.1616849   -5.1616849   -4.1674821 -0.0068092956   -5.1616849   0.99420284      1024000 
  318000   0.66330213   -5.1632467   -5.1632467   -4.1682955 -0.0069391617   -5.1632467   0.99495117      1024000 
  319000   0.66287845   -5.1640888   -5.1640888   -4.1697732 -0.011244462   -5.1640888   0.99431565      1024000 
  320000   0.66195869   -5.1634167   -5.1634167   -4.1704807 -0.0065900823   -5.1634167   0.99293601      1024000 
  321000   0.66160135   -5.1643432   -5.1643432   -4.1719432 -0.0071434558   -5.1643432   0.99240002      1024000 
  322000   0.66211251   -5.1669161   -5.1669161   -4.1737493 -0.0082983466   -5.1669161   0.99316676      1024000 
  323000   0.66211245   -5.1682722   -5.1682722   -4.1751055 -0.0041394524   -5.1682722   0.99316667      1024000 
  324000   0.66096079   -5.1678521   -5.1678521   -4.1764129 0.00076147229   -5.1678521   0.99143917      1024000 
  325000   0.66259693   -5.1716626   -5.1716626   -4.1777692 -0.0018798071   -5.1716626   0.99389338      1024000 
  326000   0.66329937    -5.174059    -5.174059   -4.1791119 0.0012808201    -5.174059   0.99494703      1024000 
  327000   0.66219784   -5.1738284   -5.1738284   -4.1805337 0.0075140228   -5.1738284   0.99329474      1024000 
  328000    0.6628046   -5.1761975   -5.1761975   -4.1819926 0.0071429187   -5.1761975   0.99420489      1024000 
  329000   0.66258431   -5.1776179   -5.1776179   -4.1837434  0.010324159   -5.1776179   0.99387445      1024000 
  330000   0.66253806   -5.1789692   -5.1789692   -4.1851641 0.0087098787   -5.1789692   0.99380507      1024000 
  331000   0.66281999    -5.180672    -5.180672    -4.186444  0.007760082    -5.180672   0.99422797      1024000 
  332000   0.66211834    -5.181038    -5.181038   -4.1878625 0.0085671702    -5.181038    0.9931755      1024000 
  333000   0.66181273   -5.1820332   -5.1820332   -4.1893161  0.009265349   -5.1820332   0.99271709      1024000 
  334000   0.66160157   -5.1830303   -5.1830303     -4.19063 0.0083629724   -5.1830303   0.99240035      1024000 
  335000     0.660615   -5.1829021   -5.1829021   -4.1919816  0.011843629   -5.1829021   0.99092049      1024000 
  336000   0.66030252   -5.1840921   -5.1840921   -4.1936403  0.010656715   -5.1840921   0.99045177      1024000 
  337000   0.66018093   -5.1846184   -5.1846184    -4.194349 0.0081832087   -5.1846184   0.99026939      1024000 
  338000   0.65951962   -5.1853778   -5.1853778   -4.1961004 -0.0017637164   -5.1853778   0.98927742      1024000 
  339000   0.65878684   -5.1852575   -5.1852575   -4.1970792 -0.0013730055   -5.1852575   0.98817826      1024000 
  340000   0.65878787    -5.186499    -5.186499   -4.1983192 -0.0031327621    -5.186499    0.9881798      1024000 
  341000   0.65793202   -5.1857429   -5.1857429   -4.1988469 0.0015425065   -5.1857429   0.98689603      1024000 
  342000   0.65860694   -5.1881474   -5.1881474    -4.200239 -0.0077279886   -5.1881474   0.98790841      1024000 
  343000    0.6580804   -5.1890713   -5.1890713   -4.2019527 -0.0088972353   -5.1890713   0.98711859      1024000 
  344000   0.65645216   -5.1878554   -5.1878554   -4.2031791 -0.0056729392   -5.1878554   0.98467624      1024000 
  345000   0.65706418   -5.1893213   -5.1893213    -4.203727 -0.0044544066   -5.1893213   0.98559426      1024000 
  346000   0.65791336   -5.1913733   -5.1913733   -4.2045052 -0.0037755018   -5.1913733   0.98686804      1024000 
  347000   0.65773224   -5.1917738   -5.1917738   -4.2051775 0.00021844329   -5.1917738   0.98659635      1024000 
  348000   0.65832358   -5.1937284   -5.1937284    -4.206245 -0.00011707987   -5.1937284   0.98748337      1024000 
  349000   0.65868841   -5.1956633   -5.1956633   -4.2076327 0.0035379523   -5.1956633   0.98803061      1024000 
  350000   0.65863508   -5.1974175   -5.1974175   -4.2094668 0.0032265085   -5.1974175   0.98795062      1024000 
  351000   0.65833502   -5.1986272   -5.1986272   -4.2111267 0.0043092658   -5.1986272   0.98750052      1024000 
  352000   0.65722777   -5.1985055   -5.1985055   -4.2126658 0.0076306267   -5.1985055   0.98583966      1024000 
  353000   0.65815341   -5.2009141   -5.2009141    -4.213686 0.0058899989   -5.2009141   0.98722812      1024000 
  354000   0.65793049   -5.2021285   -5.2021285   -4.2152347 0.0096201078   -5.2021285   0.98689374      1024000 
  355000   0.65868223   -5.2045358   -5.2045358   -4.2165144 0.0067541909   -5.2045358   0.98802133      1024000 
  356000   0.65880753   -5.2055772   -5.2055772   -4.2173679 0.0052201458   -5.2055772    0.9882093      1024000 
  357000   0.65784242   -5.2050861   -5.2050861   -4.2183244 0.0074076549   -5.2050861   0.98676163      1024000 
  358000   0.65865893   -5.2071037   -5.2071037   -4.2191173 0.0070514595   -5.2071037   0.98798638      1024000 
  359000   0.65821745    -5.207949    -5.207949   -4.2206249 0.0066262171    -5.207949   0.98732417      1024000 
  360000   0.65670996   -5.2068566   -5.2068566   -4.2217937 0.0086484188   -5.2068566   0.98506294      1024000 
  361000   0.65638566   -5.2083682   -5.2083682   -4.2237917 0.0019262818   -5.2083682   0.98457649      1024000 
  362000   0.65664176   -5.2092082   -5.2092082   -4.2242476  0.001760608   -5.2092082   0.98496065      1024000 
  363000   0.65519888   -5.2079605   -5.2079605   -4.2251642   0.00250235   -5.2079605   0.98279632      1024000 
  364000    0.6551232   -5.2089535   -5.2089535   -4.2262707 0.00080263693   -5.2089535   0.98268281      1024000 
  365000    0.6548957   -5.2100358   -5.2100358   -4.2276943 -0.0011789134   -5.2100358   0.98234155      1024000 
  366000   0.65520167   -5.2119181   -5.2119181   -4.2291176 -0.0045064548   -5.2119181    0.9828005      1024000 
  367000   0.65417002    -5.212038    -5.212038   -4.2307849 -0.001403012    -5.212038   0.98125304      1024000 
  368000   0.65505149   -5.2142112   -5.2142112   -4.2316359 -0.0033280755   -5.2142112   0.98257524      1024000 
  369000   0.65469227   -5.2145161   -5.2145161   -4.2324797 -0.0029755978   -5.2145161   0.98203642      1024000 
  370000   0.65429245   -5.2152558   -5.2152558   -4.2338191 -0.0030092956   -5.2152558   0.98143668      1024000 
  371000   0.65400122   -5.2160944   -5.2160944   -4.2350946 -0.00049362924   -5.2160944   0.98099984      1024000 
  372000   0.65430999    -5.217853    -5.217853     -4.23639 0.0029625388    -5.217853     0.981463      1024000 
  373000   0.65478755   -5.2197006   -5.2197006   -4.2375213 0.0049714986   -5.2197006   0.98217934      1024000 
  374000   0.65439112   -5.2199151   -5.2199151   -4.2383304 0.0066007575   -5.2199151   0.98158468      1024000 
  375000   0.65468574   -5.2220389   -5.2220389   -4.2400123 0.0063814871   -5.2220389   0.98202661      1024000 
  376000   0.65547468   -5.2242232   -5.2242232   -4.2410132 0.0038522232   -5.2242232   0.98321002      1024000 
  377000   0.65491401   -5.2249236   -5.2249236   -4.2425546 0.0081389033   -5.2249236   0.98236902      1024000 
  378000   0.65547507   -5.2271004   -5.2271004   -4.2438898 0.0079545818   -5.2271004   0.98321062      1024000 
  379000   0.65475538   -5.2270454   -5.2270454   -4.2449143 0.0094106568   -5.2270454   0.98213108      1024000 
  380000   0.65488828    -5.228732    -5.228732   -4.2464016 0.0058036421    -5.228732   0.98233043      1024000 
  381000   0.65471364   -5.2289381   -5.2289381   -4.2468696 0.0065455022   -5.2289381   0.98206847      1024000 
  382000   0.65435179   -5.2292797   -5.2292797    -4.247754 0.0083293284   -5.2292797    0.9815257      1024000 
  383000   0.65338156   -5.2294182   -5.2294182   -4.2493479 0.0063915207   -5.2294182   0.98007035      1024000 
  384000   0.65456868   -5.2314212   -5.2314212   -4.2495702 0.0064304058   -5.2314212   0.98185102      1024000 
  385000   0.65353334   -5.2310842   -5.2310842   -4.2507862 0.0078778804   -5.2310842   0.98029802      1024000 
  386000   0.65413689   -5.2331733   -5.2331733   -4.2519699 0.0043428975   -5.2331733   0.98120335      1024000 
  387000   0.65274617   -5.2323809   -5.2323809   -4.2532636  0.001530185   -5.2323809   0.97911727      1024000 
  388000   0.65166648   -5.2320102   -5.2320102   -4.2545125 -0.0015704706   -5.2320102   0.97749774      1024000 
  389000   0.65239676   -5.2345649   -5.2345649   -4.2559718 -0.0038392601   -5.2345649   0.97859316      1024000 
  390000   0.65086854   -5.2337994   -5.2337994   -4.2574985 -0.0017617573   -5.2337994   0.97630084      1024000 
  391000   0.65135825   -5.2357542   -5.2357542   -4.2587188 -0.0044390316   -5.2357542    0.9770354      1024000 
  392000   0.65026965   -5.2352097   -5.2352097   -4.2598072 -0.0018968207   -5.2352097    0.9754025      1024000 
  393000   0.65119357   -5.2377449   -5.2377449   -4.2609566 -0.0032209374   -5.2377449   0.97678838      1024000 
  394000   0.65105575   -5.2386912   -5.2386912   -4.2621095 0.0011308081   -5.2386912   0.97658164      1024000 
  395000   0.65064681   -5.2389712   -5.2389712   -4.2630029 -0.00049195776   -5.2389712   0.97596824      1024000 
  396000   0.65064964   -5.2403498   -5.2403498   -4.2643773 0.0050827499   -5.2403498   0.97597249      1024000 
  397000    0.6512397   -5.2422166   -5.2422166    -4.265359 0.0029207066   -5.2422166   0.97685757      1024000 
  398000   0.64993796   -5.2411757   -5.2411757   -4.2662708  0.010877458   -5.2411757   0.97490497      1024000 
  399000    0.6509397   -5.2433376   -5.2433376     -4.26693  0.009944052   -5.2433376   0.97640757      1024000 
  400000   0.65139069   -5.2456888   -5.2456888   -4.2686048 0.0058719212   -5.2456888   0.97708405      1024000 
  401000    0.6509856   -5.2455406   -5.2455406   -4.2690641 0.0095312748   -5.2455406   0.97647642      1024000 
  402000   0.65152642   -5.2475362   -5.2475362   -4.2702486  0.011821373   -5.2475362   0.97728764      1024000 
  403000    0.6510506    -5.247529    -5.247529   -4.2709551  0.012480417    -5.247529   0.97657392      1024000 
  404000   0.65079664   -5.2484205   -5.2484205   -4.2722275  0.012006698   -5.2484205   0.97619298      1024000 
  405000   0.65057846   -5.2493251   -5.2493251   -4.2734594 0.0099484664   -5.2493251   0.97586571      1024000 
  406000   0.65020339   -5.2501721   -5.2501721    -4.274869 0.0083482159   -5.2501721    0.9753031      1024000 
  407000   0.65052875   -5.2517683   -5.2517683   -4.2759771 0.0047437731   -5.2517683   0.97579115      1024000 
  408000   0.64993508   -5.2522219   -5.2522219   -4.2773213 0.0041924075   -5.2522219   0.97490064      1024000 
  409000   0.64881184   -5.2519461   -5.2519461   -4.2787303 0.0016569655   -5.2519461   0.97321579      1024000 
  410000   0.65015811   -5.2547071   -5.2547071   -4.2794719 -0.0029337274   -5.2547071   0.97523518      1024000 
  411000   0.64887813   -5.2536267   -5.2536267   -4.2803115 0.00024195032   -5.2536267   0.97331522      1024000 
  412000   0.64800545   -5.2529262   -5.2529262     -4.28092 0.0035267329   -5.2529262    0.9720062      1024000 
  413000   0.64866243   -5.2545979   -5.2545979   -4.2816062 0.0011788463   -5.2545979   0.97299167      1024000 
  414000   0.64737211   -5.2540328   -5.2540328   -4.2829766 -0.0011347831   -5.2540328    0.9710562      1024000 
  415000   0.64729461   -5.2547384   -5.2547384   -4.2837984 -0.0024424741   -5.2547384   0.97093995      1024000 
  416000   0.64739565   -5.2554486   -5.2554486   -4.2843571 -0.003888938   -5.2554486    0.9710915      1024000 
  417000   0.64754412   -5.2571509   -5.2571509   -4.2858367 -0.0011694344   -5.2571509    0.9713142      1024000 
  418000   0.64748953   -5.2576734   -5.2576734   -4.2864411 0.0015803255   -5.2576734   0.97123233      1024000 
  419000   0.64813638   -5.2597498   -5.2597498   -4.2875472 0.0048954812   -5.2597498   0.97220259      1024000 
  420000   0.64810611    -5.260775    -5.260775   -4.2886178 0.0048887184    -5.260775   0.97215719      1024000 
  421000    0.6480416   -5.2619973   -5.2619973   -4.2899369 0.0034530454   -5.2619973   0.97206042      1024000 
  422000   0.64785743   -5.2636323   -5.2636323   -4.2918481 0.0041656559   -5.2636323   0.97178417      1024000 
  423000   0.64758152   -5.2644265   -5.2644265   -4.2930562 0.0043127949   -5.2644265   0.97137031      1024000 
  424000   0.64663685   -5.2633082   -5.2633082   -4.2933549  0.008673062   -5.2633082    0.9699533      1024000 
  425000   0.64752734   -5.2653818   -5.2653818   -4.2940927 0.0085616571   -5.2653818   0.97128903      1024000 
  426000   0.64705597   -5.2658539   -5.2658539   -4.2952719 0.0085091915   -5.2658539   0.97058198      1024000 
  427000   0.64807628    -5.268048    -5.268048   -4.2959356  0.007891151    -5.268048   0.97211244      1024000 
  428000   0.64823232   -5.2694203   -5.2694203   -4.2970737 0.0063036767   -5.2694203   0.97234651      1024000 
  429000   0.64789085   -5.2700077   -5.2700077   -4.2981734  0.010659283   -5.2700077    0.9718343      1024000 
  430000   0.64675257   -5.2699214   -5.2699214   -4.2997945 0.0087987274   -5.2699214   0.97012689      1024000 
  431000   0.64702755   -5.2706925   -5.2706925   -4.3001532 0.0062408617   -5.2706925   0.97053936      1024000 
  432000   0.64579439   -5.2697782   -5.2697782   -4.3010886 0.0060447696   -5.2697782   0.96868962      1024000 
  433000   0.64640176   -5.2713807   -5.2713807     -4.30178 0.0039288704   -5.2713807   0.96960068      1024000 
  434000   0.64560095   -5.2711964   -5.2711964   -4.3027969 0.0069987816   -5.2711964   0.96839947      1024000 
  435000   0.64732467   -5.2746222   -5.2746222   -4.3036371 0.00061047604   -5.2746222   0.97098504      1024000 
  436000   0.64502988   -5.2717764   -5.2717764   -4.3042336 0.0066860278   -5.2717764   0.96754286      1024000 
  437000   0.64649655   -5.2744475   -5.2744475   -4.3047046 -0.0017898538   -5.2744475   0.96974285      1024000 
  438000   0.64560318   -5.2737628   -5.2737628     -4.30536 0.0031937221   -5.2737628   0.96840281      1024000 
  439000   0.64530926   -5.2739535   -5.2739535   -4.3059915 0.0043370424   -5.2739535   0.96796193      1024000 
  440000   0.64535264   -5.2757612   -5.2757612   -4.3077342 0.0011822759   -5.2757612   0.96802699      1024000 
  441000    0.6456665   -5.2770951   -5.2770951   -4.3085973 0.0035806003   -5.2770951   0.96849779      1024000 
  442000   0.64452643   -5.2769801   -5.2769801   -4.3101924 0.0025235614   -5.2769801   0.96678769      1024000 
  443000   0.64452331   -5.2790293   -5.2790293   -4.3122463 -0.00021824009   -5.2790293     0.966783      1024000 
  444000    0.6455269   -5.2806306   -5.2806306   -4.3123422 0.0036290054   -5.2806306   0.96828839      1024000 
  445000   0.64456027   -5.2802174   -5.2802174   -4.3133789 0.0082816416   -5.2802174   0.96683845      1024000 
  446000   0.64434481   -5.2813378   -5.2813378   -4.3148226 0.0073984218   -5.2813378   0.96651525      1024000 
  447000   0.64535626   -5.2844733   -5.2844733   -4.3164409 0.0052884202   -5.2844733   0.96803242      1024000 
  448000   0.64541756   -5.2849367   -5.2849367   -4.3168123 0.0043802431   -5.2849367   0.96812438      1024000 
  449000   0.64442947   -5.2844998   -5.2844998   -4.3178576  0.011297125   -5.2844998   0.96664225      1024000 
  450000   0.64555235   -5.2874728   -5.2874728   -4.3191463 0.0070733556   -5.2874728   0.96832656      1024000 
  451000    0.6447287   -5.2866713   -5.2866713   -4.3195802  0.012015064   -5.2866713   0.96709109      1024000 
  452000    0.6450644   -5.2885861   -5.2885861   -4.3209915 0.0098542824   -5.2885861   0.96759464      1024000 
  453000   0.64520414   -5.2892825   -5.2892825   -4.3214783   0.01122323   -5.2892825   0.96780424      1024000 
  454000   0.64492729   -5.2894676   -5.2894676   -4.3220787 0.0064893993   -5.2894676   0.96738897      1024000 
  455000   0.64538113   -5.2908816   -5.2908816   -4.3228119 0.0066797832   -5.2908816   0.96806973      1024000 
  456000   0.64357704   -5.2891465   -5.2891465   -4.3237829  0.011579046   -5.2891465    0.9653636      1024000 
  457000   0.64457595   -5.2911219   -5.2911219   -4.3242599 0.0097687748   -5.2911219   0.96686197      1024000 
  458000   0.64434327   -5.2911747   -5.2911747   -4.3246617 0.0045832468   -5.2911747   0.96651295      1024000 
  459000   0.64276478    -5.290559    -5.290559   -4.3264138 0.0071526241    -5.290559   0.96414521      1024000 
  460000   0.64307302   -5.2920836   -5.2920836    -4.327476  0.002850945   -5.2920836   0.96460757      1024000 
  461000   0.64356367   -5.2934513   -5.2934513   -4.3281077 0.0033502654   -5.2934513   0.96534355      1024000 
  462000   0.64316723   -5.2935388   -5.2935388   -4.3287899 0.00037438036   -5.2935388   0.96474888      1024000 
  463000    0.6430718   -5.2942803   -5.2942803   -4.3296745 -0.0012063337   -5.2942803   0.96460574      1024000 
  464000   0.64284677   -5.2941264   -5.2941264   -4.3298582 0.00061961503   -5.2941264   0.96426819      1024000 
  465000   0.64304727   -5.2965855   -5.2965855   -4.3320166 0.00053365877   -5.2965855   0.96456895      1024000 
  466000   0.64298687   -5.2971223   -5.2971223   -4.3326439 0.0049419084   -5.2971223   0.96447835      1024000 
  467000   0.64173866    -5.296537    -5.296537    -4.333931 0.0068553494    -5.296537   0.96260604      1024000 
  468000   0.64239999   -5.2982844   -5.2982844   -4.3346863 0.0057234596   -5.2982844   0.96359804      1024000 
  469000   0.64376776   -5.3010245   -5.3010245   -4.3353749 -0.001274342   -5.3010245   0.96564969      1024000 
  470000     0.642427   -5.2993477   -5.2993477   -4.3357091 0.0035669909   -5.2993477   0.96363855      1024000 
  471000   0.64138375   -5.2990298   -5.2990298   -4.3369562 0.0080250057   -5.2990298   0.96207367      1024000 
  472000   0.64227665   -5.3010812   -5.3010812   -4.3376682 0.0073868584   -5.3010812   0.96341302      1024000 
  473000   0.64195408   -5.3015132   -5.3015132    -4.338584 0.0081014838   -5.3015132   0.96292916      1024000 
  474000   0.64225914   -5.3035219   -5.3035219   -4.3401352 0.0062217121   -5.3035219   0.96338676      1024000 
  475000   0.64265611   -5.3040656   -5.3040656   -4.3400834 0.0065067086   -5.3040656   0.96398221      1024000 
  476000   0.64218223   -5.3037677   -5.3037677   -4.3404963  0.008510489   -5.3037677   0.96327139      1024000 
  477000   0.64176281    -5.304194    -5.304194   -4.3415518  0.010099106    -5.304194   0.96264225      1024000 
  478000   0.64223519   -5.3056308   -5.3056308   -4.3422799 0.0094790465   -5.3056308   0.96335083      1024000 
  479000   0.64157665   -5.3049415   -5.3049415   -4.3425785  0.011707943   -5.3049415   0.96236302      1024000 
  480000   0.64115869   -5.3054466   -5.3054466   -4.3437105 0.0096532966   -5.3054466   0.96173608      1024000 
  481000   0.64043488   -5.3054801   -5.3054801   -4.3448297 0.0092846576   -5.3054801   0.96065036      1024000 
  482000   0.64136021   -5.3075982   -5.3075982   -4.3455598 0.0056182465   -5.3075982   0.96203836      1024000 
  483000   0.64003286   -5.3064986   -5.3064986   -4.3464513  0.008779198   -5.3064986   0.96004734      1024000 
  484000   0.64072657   -5.3091185   -5.3091185   -4.3480306 0.00022431986   -5.3091185   0.96108791      1024000 
  485000   0.64049706   -5.3092724   -5.3092724   -4.3485287 0.0054736649   -5.3092724   0.96074365      1024000 
  486000   0.64143207   -5.3110824   -5.3110824   -4.3489363 0.00097932496   -5.3110824   0.96214616      1024000 
  487000   0.64100563   -5.3107092   -5.3107092   -4.3492027 0.0026144289   -5.3107092    0.9615065      1024000 
  488000   0.63936517   -5.3093563   -5.3093563   -4.3503105 0.0059874898   -5.3093563   0.95904581      1024000 
  489000   0.63988098   -5.3118587   -5.3118587   -4.3520392 0.0061816182   -5.3118587   0.95981952      1024000 
  490000   0.64045648   -5.3139048   -5.3139048   -4.3532221 0.0013660904   -5.3139048   0.96068277      1024000 
  491000   0.63949438   -5.3135307   -5.3135307    -4.354291 0.0061787376   -5.3135307   0.95923963      1024000 
  492000   0.64002397   -5.3143632   -5.3143632   -4.3543292 0.0052129896   -5.3143632   0.96003401      1024000 
  493000   0.63899691   -5.3131216   -5.3131216   -4.3546282  0.013852944   -5.3131216   0.95849342      1024000 
  494000   0.63961396   -5.3153368   -5.3153368   -4.3559178 0.0080261068   -5.3153368     0.959419      1024000 
  495000   0.64055333   -5.3168709   -5.3168709   -4.3560428 0.0087238926   -5.3168709   0.96082804      1024000 
  496000   0.64070154   -5.3180076   -5.3180076   -4.3569573  0.010150519   -5.3180076   0.96105035      1024000 
  497000   0.64009086   -5.3182489   -5.3182489   -4.3581145  0.016341666   -5.3182489   0.96013434      1024000 
  498000   0.63960349   -5.3188148   -5.3188148   -4.3594116  0.013467163   -5.3188148   0.95940328      1024000 
  499000    0.6403411   -5.3203229   -5.3203229   -4.3598132  0.010398036   -5.3203229   0.96050971      1024000 
  500000   0.64043768   -5.3217141   -5.3217141   -4.3610595 0.0081652289   -5.3217141   0.96065457      1024000 
  501000   0.64009667   -5.3220562   -5.3220562   -4.3619132 0.0026722297   -5.3220562   0.96014305      1024000 
  502000   0.63838008   -5.3207323   -5.3207323   -4.3631641  0.010479999   -5.3207323   0.95756818      1024000 
  503000   0.63918686    -5.322481    -5.322481   -4.3637027 0.0088437529    -5.322481   0.95877834      1024000 
  504000    0.6387753   -5.3223745   -5.3223745   -4.3642135 0.0088433902   -5.3223745     0.958161      1024000 
  505000   0.63870843   -5.3229845   -5.3229845   -4.3649238  0.006941769   -5.3229845    0.9580607      1024000 
  506000   0.63843451   -5.3228674   -5.3228674   -4.3652176 0.0042205731   -5.3228674   0.95764983      1024000 
  507000   0.63933885   -5.3248387   -5.3248387   -4.3658323 0.0025310672   -5.3248387   0.95900633      1024000 
  508000   0.63911369   -5.3252216   -5.3252216    -4.366553 0.0044441197   -5.3252216   0.95866859      1024000 
  509000   0.63973574   -5.3273436   -5.3273436    -4.367742 0.0027668505   -5.3273436   0.95960167      1024000 
  510000   0.63857918   -5.3264414   -5.3264414   -4.3685746 0.0015023862   -5.3264414   0.95786682      1024000 
  511000   0.63831963   -5.3271659   -5.3271659   -4.3696884 0.0023361484   -5.3271659    0.9574775      1024000 
  512000   0.63798711   -5.3276973   -5.3276973   -4.3707186 0.0037574638   -5.3276973   0.95697872      1024000 
  513000   0.63791184   -5.3285752   -5.3285752   -4.3717094 0.0068260553   -5.3285752   0.95686581      1024000 
  514000   0.63810098   -5.3293873   -5.3293873   -4.3722377 0.0056493114   -5.3293873   0.95714953      1024000 
  515000   0.63714964   -5.3288534   -5.3288534   -4.3731309 0.0073290574   -5.3288534   0.95572252      1024000 
  516000   0.63744747   -5.3303465   -5.3303465   -4.3741772  0.009719934   -5.3303465   0.95616926      1024000 
  517000   0.63885936   -5.3328641   -5.3328641    -4.374577 0.0075682821   -5.3328641   0.95828709      1024000 
  518000   0.63826468   -5.3326522   -5.3326522   -4.3752571  0.012116798   -5.3326522   0.95739507      1024000 
  519000   0.63773552   -5.3332073   -5.3332073    -4.376606 0.0086798475   -5.3332073   0.95660134      1024000 
  520000    0.6378956   -5.3338382   -5.3338382   -4.3769967  0.012687118   -5.3338382   0.95684146      1024000 
  521000   0.63838882   -5.3359963   -5.3359963    -4.378415 0.0053963583   -5.3359963   0.95758128      1024000 
  522000   0.63813656   -5.3361932   -5.3361932   -4.3789903 0.0085885212   -5.3361932    0.9572029      1024000 
  523000   0.63685811   -5.3352103   -5.3352103   -4.3799251 0.0089944514   -5.3352103   0.95528522      1024000 
  524000   0.63771247   -5.3380151   -5.3380151   -4.3814483 0.0061668263   -5.3380151   0.95656677      1024000 
  525000   0.63763834   -5.3381908   -5.3381908   -4.3817353 0.0079447841   -5.3381908   0.95645556      1024000 
  526000   0.63661217   -5.3370206   -5.3370206   -4.3821043  0.011181818   -5.3370206   0.95491632      1024000 
  527000   0.63802908   -5.3389915   -5.3389915   -4.3819499 0.0045786307   -5.3389915   0.95704168      1024000 
  528000   0.63774596   -5.3392409   -5.3392409   -4.3826239 0.0068982789   -5.3392409   0.95661701      1024000 
  529000   0.63634963   -5.3379994   -5.3379994   -4.3834769 0.0081007593   -5.3379994   0.95452251      1024000 
  530000   0.63620786   -5.3384224   -5.3384224   -4.3841125 0.0077874375   -5.3384224   0.95430985      1024000 
  531000   0.63578922   -5.3386561   -5.3386561   -4.3849742 0.0090690269   -5.3386561    0.9536819      1024000 
  532000   0.63572635   -5.3393233   -5.3393233   -4.3857357 0.0069724108   -5.3393233    0.9535876      1024000 
  533000   0.63634639   -5.3408578   -5.3408578   -4.3863401 0.0055051934   -5.3408578   0.95451765      1024000 
  534000   0.63666835   -5.3415463   -5.3415463   -4.3865457 0.0051996522   -5.3415463   0.95500058      1024000 
  535000   0.63668735   -5.3419602   -5.3419602   -4.3869311 0.0039905846   -5.3419602   0.95502909      1024000 
  536000   0.63671717   -5.3420787   -5.3420787   -4.3870049 0.0083668522   -5.3420787   0.95507382      1024000 
  537000   0.63625516   -5.3428127   -5.3428127   -4.3884319 0.0020449243   -5.3428127   0.95438081      1024000 
  538000   0.63621562   -5.3431987   -5.3431987   -4.3888773 0.0042933365   -5.3431987   0.95432149      1024000 
  539000   0.63637076   -5.3444052   -5.3444052    -4.389851    0.0041341   -5.3444052    0.9545542      1024000 
  540000   0.63638443   -5.3450875   -5.3450875   -4.3905128 0.0091075827   -5.3450875   0.95457471      1024000 
  541000   0.63595873    -5.345599    -5.345599   -4.3916628 0.0088968454    -5.345599   0.95393616      1024000 
  542000   0.63564486   -5.3457206   -5.3457206   -4.3922552 0.0098358806   -5.3457206   0.95346535      1024000 
  543000   0.63519367    -5.345606    -5.345606   -4.3928175  0.010840763    -5.345606   0.95278857      1024000 
  544000   0.63570378   -5.3476978   -5.3476978    -4.394144 0.0062825052   -5.3476978   0.95355373      1024000 
  545000   0.63618134   -5.3494981   -5.3494981    -4.395228 0.0080542947   -5.3494981   0.95427008      1024000 
  546000    0.6361971   -5.3502924   -5.3502924   -4.3959987  0.009495297   -5.3502924   0.95429372      1024000 
  547000   0.63542435   -5.3498481   -5.3498481   -4.3967135  0.011269466   -5.3498481   0.95313459      1024000 
  548000   0.63542895   -5.3506763   -5.3506763   -4.3975348  0.008501822   -5.3506763   0.95314149      1024000 
  549000   0.63538214    -5.350701    -5.350701   -4.3976297    0.0110418    -5.350701   0.95307127      1024000 
  550000   0.63532032   -5.3509202   -5.3509202   -4.3979417  0.011681783   -5.3509202   0.95297855      1024000 
  551000   0.63697727   -5.3537727   -5.3537727   -4.3983088 0.0047234199   -5.3537727   0.95546397      1024000 
  552000   0.63571824   -5.3526819   -5.3526819   -4.3991065  0.011342051   -5.3526819   0.95357542      1024000 
  553000   0.63548707   -5.3526348   -5.3526348   -4.3994062  0.010944577   -5.3526348   0.95322867      1024000 
  554000   0.63560062   -5.3535993   -5.3535993   -4.4002003  0.010351432   -5.3535993     0.953399      1024000 
  555000   0.63573366   -5.3544832   -5.3544832   -4.4008846  0.010747967   -5.3544832   0.95359855      1024000 
  556000   0.63550023   -5.3547095   -5.3547095   -4.4014611   0.00712563   -5.3547095   0.95324841      1024000 
  557000   0.63542503   -5.3552322   -5.3552322   -4.4020966  0.006892742   -5.3552322   0.95313561      1024000 
  558000   0.63499756   -5.3549435   -5.3549435   -4.4024491 0.0062787987   -5.3549435   0.95249441      1024000 
  559000   0.63549276   -5.3565412   -5.3565412    -4.403304 0.0081408043   -5.3565412   0.95323721      1024000 
  560000   0.63454188   -5.3561858   -5.3561858   -4.4043749 0.0057564053   -5.3561858   0.95181089      1024000 
  561000     0.633804   -5.3565168   -5.3565168   -4.4058127 0.0029110879   -5.3565168   0.95070407      1024000 
  562000    0.6346394   -5.3580222   -5.3580222    -4.406065 0.0017976366   -5.3580222   0.95195717      1024000 
  563000   0.63451801   -5.3582817   -5.3582817   -4.4065067 0.0015927365   -5.3582817   0.95177508      1024000 
  564000   0.63348888   -5.3571169   -5.3571169   -4.4068855 0.0073628605   -5.3571169   0.95023139      1024000 
  565000    0.6335596   -5.3584506   -5.3584506   -4.4081132 0.0039874232   -5.3584506   0.95033747      1024000 
  566000   0.63307847   -5.3589808   -5.3589808    -4.409365 0.0061538776   -5.3589808   0.94961578      1024000 
  567000   0.63335767   -5.3600691   -5.3600691   -4.4100345 0.0039563778   -5.3600691   0.95003458      1024000 
  568000   0.63331196   -5.3605673   -5.3605673   -4.4106013 0.0065431144   -5.3605673   0.94996602      1024000 
  569000   0.63362489   -5.3611323   -5.3611323   -4.4106969  0.011838465   -5.3611323   0.95043541      1024000 
  570000   0.63444486    -5.362864    -5.362864   -4.4111986  0.010995556    -5.362864   0.95166536      1024000 
  571000   0.63448725   -5.3638152   -5.3638152   -4.4120862  0.010628074   -5.3638152   0.95172895      1024000 
  572000    0.6342973   -5.3640764   -5.3640764   -4.4126324 0.0093679817   -5.3640764   0.95144401      1024000 
  573000   0.63443433   -5.3648897   -5.3648897   -4.4132402 0.0093406984   -5.3648897   0.95164956      1024000 
  574000   0.63408311   -5.3656916   -5.3656916   -4.4145688 0.0099328279   -5.3656916   0.95112273      1024000 
  575000   0.63388204   -5.3663609   -5.3663609   -4.4155397 0.0085012579   -5.3663609   0.95082113      1024000 
  576000   0.63226652   -5.3640898   -5.3640898   -4.4156919  0.012938775   -5.3640898   0.94839785      1024000 
  577000   0.63329995   -5.3663871   -5.3663871   -4.4164391 0.0090582779   -5.3663871     0.949948      1024000 
  578000   0.63383328   -5.3680376   -5.3680376   -4.4172897 0.0080251026   -5.3680376   0.95074799      1024000 
  579000   0.63336457   -5.3675725   -5.3675725   -4.4175275  0.010013491   -5.3675725   0.95004493      1024000 
  580000    0.6330179   -5.3681207   -5.3681207   -4.4185958 0.0071606494   -5.3681207   0.94952492      1024000 
  581000   0.63271636   -5.3675023   -5.3675023   -4.4184297  0.010398274   -5.3675023   0.94907261      1024000 
  582000   0.63319995   -5.3688363   -5.3688363   -4.4190383 0.0053976358   -5.3688363     0.949798      1024000 
  583000   0.63401704   -5.3704453   -5.3704453   -4.4194216 0.0049243762   -5.3704453   0.95102364      1024000 
  584000   0.63318737    -5.370455    -5.370455   -4.4206759 0.0068623485    -5.370455   0.94977913      1024000 
  585000   0.63352158   -5.3708877   -5.3708877   -4.4206072 0.0094449735   -5.3708877   0.95028045      1024000 
  586000   0.63331006   -5.3710736   -5.3710736   -4.4211104  0.005395099   -5.3710736   0.94996317      1024000 
  587000   0.63239715   -5.3701225   -5.3701225   -4.4215286  0.011715385   -5.3701225   0.94859381      1024000 
  588000   0.63281332    -5.371893    -5.371893    -4.422675 0.0074268651    -5.371893   0.94921805      1024000 
  589000    0.6334083   -5.3735301   -5.3735301   -4.4234196 0.0048084704   -5.3735301   0.95011052      1024000 
  590000   0.63232765   -5.3724224   -5.3724224   -4.4239329 0.0098762244   -5.3724224   0.94848955      1024000 
  591000    0.6326439   -5.3728255   -5.3728255   -4.4238616 0.0076129486   -5.3728255   0.94896393      1024000 
  592000   0.63246412   -5.3730912   -5.3730912   -4.4243969 0.0084652641   -5.3730912   0.94869426      1024000 
  593000   0.63232878   -5.3731287   -5.3731287   -4.4246374     0.009081   -5.3731287   0.94849124      1024000 
  594000   0.63303982   -5.3752413   -5.3752413   -4.4256835  0.007303165   -5.3752413    0.9495578      1024000 
  595000   0.63296653   -5.3758286   -5.3758286   -4.4263808 0.0087231743   -5.3758286   0.94944786      1024000 
  596000   0.63249813   -5.3761926   -5.3761926   -4.4274474  0.008363504   -5.3761926   0.94874527      1024000 
  597000   0.63189515   -5.3758288   -5.3758288    -4.427988 0.0097475522   -5.3758288    0.9478408      1024000 
  598000   0.63217493   -5.3769581   -5.3769581   -4.4286976 0.0070521619   -5.3769581   0.94826048      1024000 
  599000   0.63242624   -5.3777165   -5.3777165    -4.429079  0.011172048   -5.3777165   0.94863744      1024000 
  600000   0.63201503   -5.3776848   -5.3776848   -4.4296642 0.0098729822   -5.3776848   0.94802061      1024000 
  601000   0.63220046   -5.3782331   -5.3782331   -4.4299343  0.010790445   -5.3782331   0.94829876      1024000 
  602000   0.63157113   -5.3783688   -5.3783688    -4.431014  0.012288382   -5.3783688   0.94735477      1024000 
  603000   0.63157095   -5.3797103   -5.3797103   -4.4323558  0.011627238   -5.3797103    0.9473545      1024000 
  604000   0.63222325   -5.3820623   -5.3820623   -4.4337294 0.0064309866   -5.3820623   0.94833295      1024000 
  605000   0.63182866   -5.3813446   -5.3813446   -4.4336035  0.009261322   -5.3813446   0.94774106      1024000 
  606000   0.63215189   -5.3823107   -5.3823107   -4.4340848 0.0068473073   -5.3823107   0.94822591      1024000 
  607000   0.63112505   -5.3820765   -5.3820765   -4.4353908  0.011657241   -5.3820765   0.94668566      1024000 
  608000   0.63152493   -5.3831757   -5.3831757   -4.4358903 0.0090849418   -5.3831757   0.94728547      1024000 
  609000   0.63101859   -5.3831201   -5.3831201   -4.4365942  0.007123447   -5.3831201   0.94652596      1024000 
  610000   0.63157119   -5.3848386   -5.3848386   -4.4374837  0.006039402   -5.3848386   0.94735486      1024000 
  611000    0.6309941   -5.3839996   -5.3839996   -4.4375104 0.0076943821   -5.3839996   0.94648923      1024000 
  612000   0.63189607   -5.3857764   -5.3857764   -4.4379342 0.0040727511   -5.3857764   0.94784217      1024000 
  613000   0.63105846   -5.3851924   -5.3851924   -4.4386067 0.0076703336   -5.3851924   0.94658576      1024000 
  614000   0.63013248    -5.383919    -5.383919   -4.4387222   0.01084504    -5.383919   0.94519681      1024000 
  615000   0.63101128   -5.3852243   -5.3852243   -4.4387093 0.0063310302   -5.3852243     0.946515      1024000 
  616000   0.63015076   -5.3847957   -5.3847957   -4.4395715 0.0052843598   -5.3847957   0.94522422      1024000 
  617000   0.63110383   -5.3863949   -5.3863949   -4.4397411 0.0047431768   -5.3863949   0.94665383      1024000 
  618000    0.6303627   -5.3860284   -5.3860284   -4.4404863 0.0086930446   -5.3860284   0.94554213      1024000 
  619000   0.63111713   -5.3874773   -5.3874773   -4.4408035 0.0070010023   -5.3874773   0.94667377      1024000 
  620000   0.63130919   -5.3880891   -5.3880891   -4.4411273 0.0052360223   -5.3880891   0.94696187      1024000 
  621000   0.63100014   -5.3877737   -5.3877737   -4.4412754 0.0098276733   -5.3877737   0.94649828      1024000 
  622000   0.63128972   -5.3889536   -5.3889536   -4.4420209 0.0092381823   -5.3889536   0.94693266      1024000 
  623000   0.63070625   -5.3883859   -5.3883859   -4.4423285 0.0087952464   -5.3883859   0.94605746      1024000 
  624000   0.63114723   -5.3900109   -5.3900109    -4.443292 0.0091015712   -5.3900109   0.94671892      1024000 
  625000   0.63016863   -5.3884924   -5.3884924   -4.4432413  0.012905502   -5.3884924   0.94525102      1024000 
  626000    0.6300181   -5.3884459   -5.3884459   -4.4434206  0.013265641   -5.3884459   0.94502524      1024000 
  627000   0.63029245   -5.3895403   -5.3895403   -4.4441035  0.011490471   -5.3895403   0.94543676      1024000 
  628000   0.63068667   -5.3908898   -5.3908898   -4.4448617  0.012960286   -5.3908898   0.94602808      1024000 
  629000   0.63044267    -5.391316    -5.391316   -4.4456539  0.012491216    -5.391316   0.94566209      1024000 
  630000   0.63009602   -5.3915209   -5.3915209   -4.4463788    0.0129222   -5.3915209   0.94514211      1024000 
  631000   0.63005295   -5.3924336   -5.3924336   -4.4473561 0.0070783591   -5.3924336    0.9450775      1024000 
  632000   0.62993053   -5.3934886   -5.3934886   -4.4485947 0.0073133489   -5.3934886   0.94489388      1024000 
  633000   0.62927112   -5.3927418   -5.3927418    -4.448837  0.011049254   -5.3927418   0.94390476      1024000 
  634000   0.62932175    -5.394234    -5.394234   -4.4502533 0.0072288254    -5.394234   0.94398071      1024000 
  635000   0.62935689   -5.3944944   -5.3944944    -4.450461 0.0087638097   -5.3944944   0.94403341      1024000 
  636000   0.63009349   -5.3964362   -5.3964362   -4.4512979 0.0039990042   -5.3964362   0.94513831      1024000 
  637000   0.62961367   -5.3961779   -5.3961779   -4.4517593  0.010376629   -5.3961779   0.94441859      1024000 
  638000    0.6297379   -5.3966978   -5.3966978   -4.4520929 0.0073577854   -5.3966978   0.94460494      1024000 
  639000   0.63004421   -5.3974199   -5.3974199   -4.4523555 0.0097216729   -5.3974199   0.94506439      1024000 
  640000   0.62942589   -5.3966389   -5.3966389    -4.452502  0.013327248   -5.3966389   0.94413693      1024000 
  641000   0.63002238   -5.3980148   -5.3980148   -4.4529831  0.013092683   -5.3980148   0.94503165      1024000 
  642000   0.62940124   -5.3974819   -5.3974819    -4.453382  0.007476152   -5.3974819   0.94409994      1024000 
  643000   0.62946902   -5.3980457   -5.3980457   -4.4538441  0.010964734   -5.3980457   0.94420161      1024000 
  644000   0.62940695   -5.3988786   -5.3988786   -4.4547701  0.010830481   -5.3988786    0.9441085      1024000 
  645000   0.62882644   -5.3983816   -5.3983816   -4.4551439  0.011087264   -5.3983816   0.94323775      1024000 
  646000    0.6291189   -5.3996824   -5.3996824   -4.4560059  0.010856726   -5.3996824   0.94367643      1024000 
  647000   0.62981483   -5.4010685   -5.4010685   -4.4563482 0.0073867314   -5.4010685   0.94472033      1024000 
  648000   0.62915505   -5.4004998   -5.4004998   -4.4567692 0.0081558993   -5.4004998   0.94373066      1024000 
  649000   0.62884298    -5.401025    -5.401025   -4.4577624 0.0084363224    -5.401025   0.94326256      1024000 
  650000   0.62910744   -5.4018366   -5.4018366   -4.4581774 0.0087645159   -5.4018366   0.94365924      1024000 
  651000   0.62864628   -5.4020222   -5.4020222   -4.4590547 0.0075309531   -5.4020222   0.94296751      1024000 
  652000   0.62885408   -5.4022066   -5.4022066   -4.4589274  0.010025857   -5.4022066    0.9432792      1024000 
  653000   0.62827149   -5.4019445   -5.4019445   -4.4595391 0.0097299635   -5.4019445   0.94240532      1024000 
  654000   0.62760434   -5.4012497   -5.4012497   -4.4598451  0.014381607   -5.4012497   0.94140459      1024000 
  655000   0.62902701   -5.4038154   -5.4038154   -4.4602768  0.011623371   -5.4038154   0.94353859      1024000 
  656000    0.6285272   -5.4036988   -5.4036988   -4.4609099  0.011946694   -5.4036988   0.94278888      1024000 
  657000   0.62881292    -5.404847    -5.404847   -4.4616295  0.011891801    -5.404847   0.94321746      1024000 
  658000   0.62823769    -5.403552    -5.403552   -4.4611973   0.01625922    -5.403552   0.94235463      1024000 
  659000   0.62908602   -5.4057812   -5.4057812   -4.4621541 0.0081352201   -5.4057812   0.94362712      1024000 
  660000   0.62854881   -5.4052636   -5.4052636   -4.4624423  0.010895147   -5.4052636   0.94282131      1024000 
  661000    0.6276983   -5.4045751   -5.4045751   -4.4630296  0.012676981   -5.4045751   0.94154554      1024000 
  662000   0.62747509   -5.4050734   -5.4050734   -4.4638627 0.0095878858   -5.4050734   0.94121072      1024000 
  663000   0.62788117   -5.4055551   -5.4055551   -4.4637353  0.011720759   -5.4055551   0.94181984      1024000 
  664000   0.62838376   -5.4072196   -5.4072196   -4.4646459 0.0064696564   -5.4072196   0.94257373      1024000 
  665000   0.62798006   -5.4061043   -5.4061043   -4.4641361 0.0062273987   -5.4061043   0.94196818      1024000 
  666000   0.62712304   -5.4055882   -5.4055882   -4.4649056 0.0073260485   -5.4055882   0.94068266      1024000 
  667000   0.62789406   -5.4071298   -5.4071298   -4.4652906 0.0072641863   -5.4071298   0.94183918      1024000 
  668000    0.6274003   -5.4070627   -5.4070627   -4.4659641 0.0061727788   -5.4070627   0.94109855      1024000 
  669000   0.62763557   -5.4075478   -5.4075478   -4.4660964 0.0064888794   -5.4075478   0.94145144      1024000 
  670000   0.62784556   -5.4085777   -5.4085777   -4.4668113 0.0076911097   -5.4085777   0.94176643      1024000 
  671000   0.62895225   -5.4102146   -5.4102146   -4.4667881 0.0070954534   -5.4102146   0.94342647      1024000 
  672000   0.62715886    -5.408397    -5.408397   -4.4676607   0.01428861    -5.408397   0.94073637      1024000 
  673000   0.62757715   -5.4093061   -5.4093061   -4.4679422 0.0081860555   -5.4093061   0.94136381      1024000 
  674000    0.6275281    -5.410164    -5.410164   -4.4688738  0.012260214    -5.410164   0.94129023      1024000 
  675000   0.62748874   -5.4113297   -5.4113297   -4.4700985  0.010934837   -5.4113297   0.94123119      1024000 
  676000   0.62755694   -5.4115039   -5.4115039   -4.4701704  0.014307518   -5.4115039   0.94133349      1024000 
  677000   0.62742871   -5.4120367   -5.4120367   -4.4708956  0.016268012   -5.4120367   0.94114115      1024000 
  678000   0.62778635    -5.411994    -5.411994   -4.4703164  0.015776034    -5.411994   0.94167761      1024000 
  679000    0.6286561   -5.4131468   -5.4131468   -4.4701645  0.016283317   -5.4131468   0.94298224      1024000 
  680000   0.62799788    -5.412581    -5.412581   -4.4705861  0.016443107    -5.412581    0.9419949      1024000 
  681000   0.62780617   -5.4135143   -5.4135143    -4.471807  0.014432761   -5.4135143   0.94170734      1024000 
[...]
  837000   0.62196902   -5.4491648   -5.4491648   -4.5162132  0.014700356   -5.4491648   0.93295163      1024000 
  838000   0.62082131   -5.4479014   -5.4479014   -4.5166713  0.017203307   -5.4479014   0.93123007      1024000 
  839000   0.62178055   -5.4485948   -5.4485948   -4.5159258  0.020813692   -5.4485948   0.93266893      1024000 
  840000   0.62242389   -5.4494809   -5.4494809    -4.515847  0.018891546   -5.4494809   0.93363394      1024000 
  841000   0.62178534   -5.4485347   -5.4485347   -4.5158586  0.018451369   -5.4485347   0.93267611      1024000 
  842000   0.62237784    -5.450206    -5.450206   -4.5166412  0.016480125    -5.450206   0.93356486      1024000 
  843000   0.62160845   -5.4486867   -5.4486867   -4.5162759  0.021917084   -5.4486867   0.93241079      1024000 
  844000    0.6217087   -5.4496792   -5.4496792    -4.517118   0.01616753   -5.4496792   0.93256116      1024000 
  845000   0.62139861   -5.4495901   -5.4495901    -4.517494  0.018229724   -5.4495901   0.93209602      1024000 
  846000    0.6213231   -5.4493938   -5.4493938   -4.5174111   0.01562679   -5.4493938   0.93198276      1024000 
  847000   0.62161375   -5.4494418   -5.4494418   -4.5170231  0.016527005   -5.4494418   0.93241873      1024000 
  848000   0.62228634   -5.4508951   -5.4508951   -4.5174675 0.0074919589   -5.4508951   0.93342762      1024000 
  849000    0.6212708   -5.4498213   -5.4498213    -4.517917  0.011731173   -5.4498213    0.9319043      1024000 
  850000   0.62016753   -5.4477258   -5.4477258   -4.5174764  0.013391258   -5.4477258    0.9302494      1024000 
  851000   0.62211173   -5.4507689   -5.4507689   -4.5176032 0.0073632805   -5.4507689    0.9331657      1024000 
  852000   0.62163299   -5.4505279   -5.4505279   -4.5180803 0.0089062153   -5.4505279   0.93244759      1024000 
  853000   0.62151402    -5.450259    -5.450259   -4.5179899  0.013438733    -5.450259   0.93226914      1024000 
  854000   0.62054509   -5.4492859   -5.4492859   -4.5184702  0.013984727   -5.4492859   0.93081575      1024000 
  855000   0.62175983   -5.4514668   -5.4514668   -4.5188289 0.0089908258   -5.4514668   0.93263786      1024000 
  856000   0.62198882   -5.4513806   -5.4513806   -4.5183993 0.0091567297   -5.4513806   0.93298134      1024000 
  857000   0.62137513   -5.4505375   -5.4505375   -4.5184767  0.014164957   -5.4505375   0.93206081      1024000 
  858000    0.6210982   -5.4501848   -5.4501848   -4.5185394  0.018323059   -5.4501848   0.93164541      1024000 
  859000   0.62249636   -5.4526134   -5.4526134   -4.5188707  0.013684584   -5.4526134   0.93374264      1024000 
  860000   0.62210607   -5.4520562   -5.4520562   -4.5188989  0.014846863   -5.4520562   0.93315721      1024000 
  861000   0.62205483   -5.4523173   -5.4523173    -4.519237  0.018773693   -5.4523173   0.93308035      1024000 
  862000   0.62166621   -5.4520485   -5.4520485   -4.5195511  0.022655023   -5.4520485   0.93249743      1024000 
  863000   0.62182702   -5.4528414   -5.4528414   -4.5201027  0.023887504   -5.4528414   0.93273863      1024000 
  864000   0.62110825   -5.4526853   -5.4526853   -4.5210249  0.021483418   -5.4526853   0.93166049      1024000 
  865000   0.62175504   -5.4534352   -5.4534352   -4.5208045  0.017107936   -5.4534352   0.93263066      1024000 
  866000   0.62194977   -5.4545011   -5.4545011   -4.5215784  0.017251622   -5.4545011   0.93292276      1024000 
  867000   0.62122594    -5.452223    -5.452223   -4.5203859  0.021670324    -5.452223   0.93183702      1024000 
  868000   0.62154199   -5.4530724   -5.4530724   -4.5207613  0.017183467   -5.4530724   0.93231109      1024000 
  869000   0.62125855   -5.4519795   -5.4519795   -4.5200935  0.015087201   -5.4519795   0.93188594      1024000 
  870000   0.62119771   -5.4515858   -5.4515858   -4.5197911  0.015259707   -5.4515858   0.93179467      1024000 
  871000     0.620765   -5.4512663   -5.4512663   -4.5201207  0.016037727   -5.4512663   0.93114561      1024000 
  872000    0.6209778   -5.4512769   -5.4512769   -4.5198121  0.014671513   -5.4512769   0.93146481      1024000 
  873000    0.6211514   -5.4517481   -5.4517481   -4.5200228  0.012777393   -5.4517481   0.93172521      1024000 
  874000   0.62063933   -5.4520936   -5.4520936   -4.5211365  0.010695598   -5.4520936    0.9309571      1024000 
  875000    0.6201526   -5.4506508   -5.4506508   -4.5204238  0.010663476   -5.4506508   0.93022701      1024000 
  876000   0.62027015   -5.4507697   -5.4507697   -4.5203664  0.011353423   -5.4507697   0.93040333      1024000 
  877000   0.62081689   -5.4519857   -5.4519857   -4.5207623  0.010946517   -5.4519857   0.93122345      1024000 
  878000   0.62135117   -5.4536777   -5.4536777   -4.5216529  0.011224133   -5.4536777   0.93202486      1024000 
  879000   0.62135686   -5.4530525   -5.4530525   -4.5210191  0.014141192   -5.4530525   0.93203339      1024000 
  880000   0.62143295     -5.45338     -5.45338   -4.5212324  0.015248329     -5.45338   0.93214754      1024000 
  881000   0.62180208   -5.4537961   -5.4537961   -4.5210949  0.017843389   -5.4537961   0.93270123      1024000 
  882000    0.6217614   -5.4534303   -5.4534303   -4.5207901  0.022021344   -5.4534303   0.93264021      1024000 
  883000   0.62231556   -5.4543048   -5.4543048   -4.5208334  0.021046505   -5.4543048   0.93347145      1024000 
  884000   0.62167783   -5.4533621   -5.4533621   -4.5208473  0.023806139   -5.4533621   0.93251485      1024000 
  885000   0.62162813   -5.4535417   -5.4535417   -4.5211014   0.02410908   -5.4535417   0.93244031      1024000 
  886000   0.62229746   -5.4542828   -5.4542828   -4.5208385   0.01955335   -5.4542828   0.93344429      1024000 
  887000   0.62042281   -5.4521696   -5.4521696   -4.5215373  0.021836754   -5.4521696   0.93063233      1024000 
  888000   0.62163366    -5.453336    -5.453336   -4.5208874  0.017464384    -5.453336    0.9324486      1024000 
  889000   0.62108787   -5.4534409   -5.4534409   -4.5218109  0.016364169   -5.4534409   0.93162992      1024000 
  890000   0.61985328   -5.4520365   -5.4520365   -4.5222584  0.018511654   -5.4520365   0.92977803      1024000 
  891000   0.62027088   -5.4528051   -5.4528051   -4.5224007   0.01544415   -5.4528051   0.93040443      1024000 
  892000    0.6210184   -5.4535618   -5.4535618   -4.5220361 0.0079508575   -5.4535618   0.93152572      1024000 
  893000   0.61966823   -5.4518011   -5.4518011   -4.5223007  0.012121802   -5.4518011   0.92950046      1024000 
  894000   0.61889582   -5.4505793   -5.4505793   -4.5222374  0.012899401   -5.4505793   0.92834184      1024000 
  895000   0.61924404    -5.451391    -5.451391   -4.5225268 0.0099155339    -5.451391   0.92886418      1024000 
  896000   0.61953771   -5.4515018   -5.4515018   -4.5221972  0.010518668   -5.4515018   0.92930468      1024000 
  897000   0.61913725   -5.4505952   -5.4505952   -4.5218912  0.012376652   -5.4505952   0.92870399      1024000 
  898000   0.62015589   -5.4520944   -5.4520944   -4.5218624  0.011681739   -5.4520944   0.93023195      1024000 
  899000   0.61992855   -5.4518165   -5.4518165   -4.5219255  0.017229365   -5.4518165   0.92989094      1024000 
  900000   0.62014805   -5.4525069   -5.4525069   -4.5222867  0.015645618   -5.4525069   0.93022019      1024000 
  901000    0.6208706   -5.4533042   -5.4533042   -4.5220001  0.012169494   -5.4533042   0.93130402      1024000 
  902000   0.62154994   -5.4531092   -5.4531092   -4.5207862  0.015668697   -5.4531092   0.93232302      1024000 
  903000   0.62120231   -5.4525265   -5.4525265   -4.5207249  0.023173562   -5.4525265   0.93180158      1024000 
  904000   0.62156077   -5.4532111   -5.4532111   -4.5208718  0.018499412   -5.4532111   0.93233926      1024000 
  905000   0.62144016   -5.4534341   -5.4534341   -4.5212758  0.020195778   -5.4534341   0.93215834      1024000 
  906000    0.6224177   -5.4550426   -5.4550426    -4.521418  0.016280149   -5.4550426   0.93362465      1024000 
  907000   0.62134627   -5.4541469   -5.4541469   -4.5221294  0.019133186   -5.4541469   0.93201752      1024000 
  908000   0.62037421   -5.4525709   -5.4525709   -4.5220114  0.020237435   -5.4525709   0.93055942      1024000 
  909000   0.62090861   -5.4537725   -5.4537725   -4.5224114  0.017763184   -5.4537725   0.93136103      1024000 
  910000   0.62081747   -5.4527096   -5.4527096   -4.5214853  0.017216946   -5.4527096   0.93122431      1024000 
  911000   0.62034565   -5.4519039   -5.4519039   -4.5213874  0.015526877   -5.4519039   0.93051659      1024000 
  912000   0.62097576   -5.4537683   -5.4537683   -4.5223065  0.013601301   -5.4537683   0.93146175      1024000 
  913000   0.62043634   -5.4533219   -5.4533219   -4.5226693  0.012221154   -5.4533219   0.93065262      1024000 
  914000   0.61936723   -5.4516073   -5.4516073   -4.5225583  0.014755402   -5.4516073   0.92904896      1024000 
  915000   0.61963255   -5.4523322   -5.4523322   -4.5228853  0.013021415   -5.4523322   0.92944693      1024000 
  916000   0.61977596   -5.4523066   -5.4523066   -4.5226445  0.012618646   -5.4523066   0.92966205      1024000 
  917000   0.61856659   -5.4506694   -5.4506694   -4.5228214  0.017260536   -5.4506694   0.92784801      1024000 
  918000   0.62007155   -5.4525476   -5.4525476   -4.5224421  0.012677937   -5.4525476   0.93010544      1024000 
  919000    0.6208897   -5.4528633   -5.4528633   -4.5215306   0.01510266   -5.4528633   0.93133265      1024000 
  920000   0.62142537    -5.453579    -5.453579   -4.5214429  0.011051235    -5.453579   0.93213616      1024000 
  921000   0.62048165   -5.4517915   -5.4517915   -4.5210709  0.014297921   -5.4517915   0.93072059      1024000 
  922000   0.62097545    -5.452369    -5.452369   -4.5209078  0.016483174    -5.452369   0.93146128      1024000 
  923000   0.62002711   -5.4512639   -5.4512639   -4.5212251  0.021817393   -5.4512639   0.93003878      1024000 
  924000   0.62077332    -5.453253    -5.453253   -4.5220949   0.01956692    -5.453253    0.9311581      1024000 
  925000   0.61921359   -5.4514879   -5.4514879   -4.5226694  0.019753319   -5.4514879   0.92881851      1024000 
  926000   0.61950232   -5.4523111   -5.4523111   -4.5230595  0.019370988   -5.4523111    0.9292516      1024000 
  927000   0.61995207   -5.4528741   -5.4528741   -4.5229479  0.019414341   -5.4528741   0.92992622      1024000 
  928000   0.62005125   -5.4519128   -5.4519128   -4.5218378  0.018108834   -5.4519128   0.93007499      1024000 
  929000   0.62094687   -5.4531791   -5.4531791   -4.5217607  0.017145335   -5.4531791   0.93141841      1024000 
  930000   0.62015656   -5.4518111   -5.4518111   -4.5215781  0.021813366   -5.4518111   0.93023295      1024000 
  931000    0.6204167   -5.4523879   -5.4523879   -4.5217648  0.019060546   -5.4523879   0.93062316      1024000 
  932000   0.62170239   -5.4535708   -5.4535708   -4.5210191  0.013079951   -5.4535708   0.93255169      1024000 
  933000   0.61971011   -5.4512568   -5.4512568   -4.5216936  0.015063832   -5.4512568   0.92956328      1024000 
  934000   0.62008262   -5.4520655   -5.4520655   -4.5219435  0.011816315   -5.4520655   0.93012204      1024000 
  935000   0.62012657   -5.4522709   -5.4522709   -4.5220829  0.013826442   -5.4522709   0.93018797      1024000 
  936000   0.62039801   -5.4520852   -5.4520852   -4.5214901  0.014644061   -5.4520852   0.93059512      1024000 
  937000   0.61959582   -5.4510296   -5.4510296   -4.5216378  0.016710944   -5.4510296   0.92939184      1024000 
  938000   0.62044451   -5.4522109   -5.4522109   -4.5215461   0.01672694   -5.4522109   0.93066488      1024000 
  939000   0.62048998   -5.4520365   -5.4520365   -4.5213035  0.014609823   -5.4520365   0.93073308      1024000 
  940000   0.61981898   -5.4512702   -5.4512702   -4.5215436  0.016664269   -5.4512702   0.92972658      1024000 
  941000   0.62004697   -5.4516459   -5.4516459   -4.5215773   0.01939702   -5.4516459   0.93006857      1024000 
  942000   0.62133434   -5.4525652   -5.4525652   -4.5205656  0.018994533   -5.4525652   0.93199962      1024000 
  943000   0.62069449   -5.4528196   -5.4528196   -4.5217797  0.013757367   -5.4528196   0.93103985      1024000 
  944000   0.62119029   -5.4529693   -5.4529693   -4.5211858  0.019374245   -5.4529693   0.93178355      1024000 
  945000   0.62024748   -5.4520967   -5.4520967   -4.5217274  0.019706863   -5.4520967   0.93036933      1024000 
  946000   0.62140437   -5.4533834   -5.4533834   -4.5212787  0.018853857   -5.4533834   0.93210466      1024000 
  947000   0.62044837   -5.4521285   -5.4521285   -4.5214578  0.021548578   -5.4521285   0.93067067      1024000 
  948000   0.61992074   -5.4517134   -5.4517134   -4.5218342  0.024482269   -5.4517134   0.92987922      1024000 
  949000   0.62082951   -5.4531125   -5.4531125   -4.5218701   0.01821262   -5.4531125   0.93124237      1024000 
  950000   0.61995473   -5.4513433   -5.4513433   -4.5214131  0.020537636   -5.4513433   0.92993021      1024000 
  951000   0.62059973   -5.4527942   -5.4527942   -4.5218965  0.019566391   -5.4527942   0.93089771      1024000 
  952000   0.61913639   -5.4506015   -5.4506015   -4.5218988  0.023191989   -5.4506015   0.92870271      1024000 
  953000   0.61958407   -5.4513429   -5.4513429   -4.5219687  0.020400725   -5.4513429   0.92937422      1024000 
  954000   0.61921299   -5.4508129   -5.4508129   -4.5219953  0.017532708   -5.4508129    0.9288176      1024000 
  955000   0.61959646    -5.451106    -5.451106   -4.5217132  0.013014823    -5.451106   0.92939281      1024000 
  956000    0.6190856   -5.4506291   -5.4506291   -4.5220026  0.013494613   -5.4506291   0.92862651      1024000 
  957000   0.61887485   -5.4499631   -5.4499631   -4.5216527   0.01372297   -5.4499631   0.92831039      1024000 
  958000   0.62015698   -5.4521739   -5.4521739   -4.5219403  0.012412339   -5.4521739   0.93023359      1024000 
  959000   0.61954939   -5.4507207   -5.4507207   -4.5213985  0.010587204   -5.4507207    0.9293222      1024000 
  960000   0.61894756   -5.4502687   -5.4502687   -4.5218493  0.013431961   -5.4502687   0.92841945      1024000 
  961000   0.61911541   -5.4502623   -5.4502623   -4.5215911  0.010205469   -5.4502623   0.92867123      1024000 
  962000   0.61865409   -5.4497426   -5.4497426   -4.5217634  0.012558061   -5.4497426   0.92797926      1024000 
  963000   0.62007004   -5.4524463   -5.4524463   -4.5223432   0.01092021   -5.4524463   0.93010317      1024000 
  964000   0.61929359   -5.4518272   -5.4518272   -4.5228887  0.010236769   -5.4518272    0.9289385      1024000 
  965000   0.61931378   -5.4520679   -5.4520679   -4.5230991  0.010604695   -5.4520679   0.92896879      1024000 
  966000   0.61809081   -5.4500622   -5.4500622   -4.5229279    0.0173755   -5.4500622   0.92713434      1024000 
  967000   0.61847896    -5.450308    -5.450308   -4.5225914  0.019426284    -5.450308   0.92771656      1024000 
  968000   0.62000958   -5.4516455   -5.4516455    -4.521633  0.017366114   -5.4516455   0.93001248      1024000 
  969000     0.620502   -5.4523605   -5.4523605   -4.5216094  0.019995022   -5.4523605   0.93075111      1024000 
  970000   0.62046862   -5.4521155   -5.4521155   -4.5214144  0.020297593   -5.4521155   0.93070104      1024000 
  971000   0.62087484   -5.4527335   -5.4527335   -4.5214232  0.016067008   -5.4527335   0.93131037      1024000 
  972000   0.62044294   -5.4510808   -5.4510808   -4.5204183  0.018882145   -5.4510808   0.93066252      1024000 
  973000   0.62019094   -5.4509012   -5.4509012   -4.5206167  0.022385808   -5.4509012   0.93028452      1024000 
  974000   0.62082013   -5.4512448   -5.4512448   -4.5200165  0.020163094   -5.4512448    0.9312283      1024000 
  975000   0.61937633   -5.4496222   -5.4496222   -4.5205596  0.021565728   -5.4496222    0.9290626      1024000 
  976000   0.62081476   -5.4519152   -5.4519152   -4.5206949  0.016882508   -5.4519152   0.93122025      1024000 
  977000   0.61971766   -5.4499796   -5.4499796   -4.5204049  0.018353507   -5.4499796   0.92957461      1024000 
  978000   0.61898733   -5.4485386   -5.4485386   -4.5200595  0.017303142   -5.4485386   0.92847912      1024000 
  979000   0.61998825   -5.4500231   -5.4500231   -4.5200426  0.010257834   -5.4500231   0.92998049      1024000 
  980000   0.62025061   -5.4502659   -5.4502659   -4.5198919  0.011657117   -5.4502659   0.93037403      1024000 
  981000   0.61876771   -5.4480484   -5.4480484   -4.5198988  0.013213416   -5.4480484   0.92814969      1024000 
  982000   0.61952073   -5.4493815   -5.4493815   -4.5201023 0.0095906083   -5.4493815   0.92927921      1024000 
  983000   0.61962268   -5.4491576   -5.4491576   -4.5197255 0.0099664061   -5.4491576   0.92943213      1024000 
  984000   0.61870887   -5.4476136   -5.4476136   -4.5195522  0.017574275   -5.4476136   0.92806142      1024000 
  985000   0.61804112   -5.4471497   -5.4471497   -4.5200899  0.014405568   -5.4471497    0.9270598      1024000 
  986000   0.61894351   -5.4478227   -5.4478227   -4.5194093  0.017017205   -5.4478227   0.92841339      1024000 
  987000   0.61915976   -5.4480595   -5.4480595   -4.5193217  0.015916991   -5.4480595   0.92873775      1024000 
  988000   0.61973794   -5.4487402   -5.4487402   -4.5191351  0.012877634   -5.4487402   0.92960502      1024000 
  989000   0.61878024   -5.4474904   -5.4474904   -4.5193219  0.017576733   -5.4474904   0.92816848      1024000 
  990000    0.6198439   -5.4485895   -5.4485895   -4.5188256  0.012718794   -5.4485895   0.92976396      1024000 
  991000   0.61891256     -5.44743     -5.44743    -4.519063  0.018678875     -5.44743   0.92836695      1024000 
  992000   0.61945239   -5.4473067   -5.4473067     -4.51813  0.020726482   -5.4473067    0.9291767      1024000 
  993000   0.61953479   -5.4478394   -5.4478394   -4.5185391  0.019311831   -5.4478394    0.9293003      1024000 
  994000   0.62001636   -5.4482741   -5.4482741   -4.5182514  0.022065137   -5.4482741   0.93002265      1024000 
  995000   0.61949198   -5.4475765   -5.4475765   -4.5183404  0.023602578   -5.4475765   0.92923609      1024000 
  996000   0.61902821   -5.4465159   -5.4465159   -4.5179755  0.021700392   -5.4465159   0.92854043      1024000 
  997000    0.6202956    -5.447783    -5.447783   -4.5173415   0.01959657    -5.447783   0.93044151      1024000 
  998000   0.62021909   -5.4476048   -5.4476048    -4.517278  0.020477459   -5.4476048   0.93032675      1024000 
  999000   0.61898781   -5.4461321   -5.4461321   -4.5176523  0.024251943   -5.4461321   0.92847983      1024000 
 1000000    0.6190415   -5.4457744   -5.4457744   -4.5172141  0.022267888   -5.4457744   0.92856037      1024000 
Loop time of 17205.5 on 32 procs for 1000000 steps with 492800 atoms

Performance: 12554.147 tau/day, 58.121 timesteps/s
98.8% CPU use with 32 MPI tasks x 1 OpenMP threads

MPI task timing breakdown:
Section |  min time  |  avg time  |  max time  |%varavg|  %CPU | %total
-----------------------------------------------------------------------
Pair    | 6416.7     | 8983.3     | 10405      |1140.1 |  99.1 | 52.21
Bond    | 0.55899    | 1.6201     | 2.5633     |  62.7 | 100.0 |  0.01
Neigh   | 1268.5     | 1734.4     | 2042.1     | 467.7 |  99.8 | 10.08
Comm    | 3397.2     | 5049       | 7759.3     |1700.9 |  97.8 | 29.35
Output  | 38.248     | 38.434     | 38.444     |   0.5 |  97.8 |  0.22
Modify  | 238.85     | 505.43     | 1238.4     |1616.3 |  98.6 |  2.94
Other   |            | 893.3      |            |       |       |  5.19

Nlocal:        15400.0 ave       16018 max       14248 min
Histogram: 1 2 2 0 3 2 7 4 4 7
Nghost:        13854.3 ave       15798 max        9484 min
Histogram: 4 4 0 0 0 0 0 0 15 9
Neighs:       645584.0 ave      706802 max      498119 min
Histogram: 3 1 0 0 0 0 2 16 3 7

Total # of neighbors = 20658699
Ave neighs/atom = 41.921061
Ave special neighs/atom = 0.0000000
Neighbor list builds = 55987
Dangerous builds = 212
Total wall time: 4:46:46
