LAMMPS (24 Dec 2020)
OMP_NUM_THREADS environment is not set. Defaulting to 1 thread. (src/comm.cpp:94)
  using 1 OpenMP thread(s) per MPI task
#Read the equilibrated lj fluid and add nanocubes

units           lj
atom_style      full
atom_modify     map array first cubes
dimension       3
boundary        p p f
pair_style      lj/cut/opt 2.5

variable        sigma           equal 1.0
variable        epsilon         equal 1.0
read_restart	restart.dat.10000000
Reading restart file ...
  restart file = 24 Dec 2020, LAMMPS = 24 Dec 2020
WARNING: Restart file used different # of processors: 192 vs. 288 (src/read_restart.cpp:697)
  restoring atom style full from restart
  orthogonal box = (0.0000000 0.0000000 0.0000000) to (80.000000 80.000000 160.00000)
  6 by 4 by 12 MPI processor grid
  restoring pair style lj/cut/opt from restart
  443961 atoms
Finding 1-2 1-3 1-4 neighbors ...
  special bond factors lj:    0        0        0       
  special bond factors coul:  0        0        0       
     0 = max # of 1-2 neighbors
     0 = max # of 1-3 neighbors
     0 = max # of 1-4 neighbors
     1 = max # of special neighbors
  special bonds CPU = 2.525 seconds
  read_restart CPU = 2.908 seconds

group		solvent type 1
443961 atoms in group solvent

read_data	data_96.cubes group cubes add append
Reading data file ...
  orthogonal box = (0.0000000 0.0000000 0.0000000) to (80.000000 80.000000 160.00000)
  6 by 4 by 12 MPI processor grid
  reading atoms ...
  109728 atoms
  reading velocities ...
  109728 velocities
Finding 1-2 1-3 1-4 neighbors ...
  special bond factors lj:    0        0        0       
  special bond factors coul:  0        0        0       
     0 = max # of 1-2 neighbors
     0 = max # of 1-3 neighbors
     0 = max # of 1-4 neighbors
     1 = max # of special neighbors
  special bonds CPU = 0.048 seconds
  read_data CPU = 0.312 seconds

group 		hull  type 2
42816 atoms in group hull
group 		dummy type 3
66912 atoms in group dummy

neighbor      0.4 bin
neigh_modify  exclude molecule/intra cubes


pair_modify   shift yes

pair_coeff    1 1 1.0 1.0 #solvent
pair_coeff    2 2 1.0 1.0 1.12 #np
pair_coeff    3 3 0.0 0.0 0.0 #dummy
pair_coeff    2 3 0.0 0.0 0.0 #np dummy
pair_coeff    1 2 ${sol} 1.0  #np solvent
pair_coeff    1 2 .7 1.0  
pair_coeff    1 3 0.0 0.0 2.5 #dummy solvent

# delete solvent where the cubes are
delete_atoms  overlap 1.0 solvent cubes
System init for delete_atoms ...
Unused restart file peratom fix info:
  fix style: STORE, fix ID: bin1_COMPUTE_STORE
Neighbor list info ...
  update every 1 steps, delay 10 steps, check yes
  max neighbors/atom: 2000, page size: 100000
  master list distance cutoff = 2.9
  ghost atom cutoff = 2.9
  binsize = 1.45, bins = 56 56 111
  2 neighbor lists, perpetual/occasional/extra = 1 1 0
  (1) command delete_atoms, occasional
      attributes: full, newton on
      pair build: full/bin
      stencil: full/bin/3d
      bin: standard
  (2) pair lj/cut/opt, perpetual
      attributes: half, newton on
      pair build: half/bin/newton
      stencil: half/bin/3d/newton
      bin: standard
WARNING: Delete_atoms cutoff > minimum neighbor cutoff (src/delete_atoms.cpp:307)
WARNING: Ignoring 'compress yes' for molecular system (src/delete_atoms.cpp:125)
Deleted 77499 atoms, new total = 476190

pair_coeff    1 1 1.0 1.0 #solvent
pair_coeff    2 2 1.0 1.0 1.12 #np
pair_coeff    3 3 0.0 0.0 0.0 #dummy
pair_coeff    2 3 0.0 0.0 0.0 #np dummy
pair_coeff    1 2 ${sol} 1.0  #np solvent
pair_coeff    1 2 .7 1.0  
pair_coeff    1 3 0.0 0.0 0.0 #dummy solvent


comm_modify   mode multi cutoff/multi 1 2.5 cutoff/multi 2 2.5 cutoff/multi 3 6.95

reset_timestep 	0

balance 	1.05 shift z 10 1.05
Balancing ...
Neighbor list info ...
  update every 1 steps, delay 10 steps, check yes
  max neighbors/atom: 2000, page size: 100000
  master list distance cutoff = 2.9
  ghost atom cutoff = 6.95
  binsize = 1.45, bins = 56 56 111
  1 neighbor lists, perpetual/occasional/extra = 1 0 0
  (1) pair lj/cut/opt, perpetual
      attributes: half, newton on
      pair build: half/bin/newton
      stencil: half/bin/3d/newton
      bin: standard
 rebalancing time: 0.007 seconds
  iteration count = 4
  initial/final maximal load/proc = 2619.0000 2577.0000
  initial/final imbalance factor  = 1.5839728 1.5585712
  x cuts: 0.0000000 0.16666667 0.33333333 0.50000000 0.66666667 0.83333333 1.0000000
  y cuts: 0.0000000 0.25000000 0.50000000 0.75000000 1.0000000
  z cuts: 0.0000000 0.067708333 0.13020833 0.19270833 0.25520833 0.32291667 0.38541667 0.44791667 0.51041667 0.57812500 0.63020833 0.68229167 1.0000000

####################### WALLS ###########################

variable       epsilonWall equal 2*${epsilon}
variable       epsilonWall equal 2*1
variable       repulsive   equal   0.7147*${sigma}
variable       repulsive   equal   0.7147*1
variable       full	   equal   3*${sigma}
variable       full	   equal   3*1
region         lowWall block EDGE EDGE EDGE EDGE EDGE 2

fix            topWall all wall/lj93 zhi EDGE 	       ${epsilonWall} ${sigma} ${repulsive} units box
fix            topWall all wall/lj93 zhi EDGE 	       2 ${sigma} ${repulsive} units box
fix            topWall all wall/lj93 zhi EDGE 	       2 1 ${repulsive} units box
fix            topWall all wall/lj93 zhi EDGE 	       2 1 0.7147 units box
fix            lowSol solvent wall/lj93 zlo EDGE                ${epsilonWall} ${sigma} ${full} units box
fix            lowSol solvent wall/lj93 zlo EDGE                2 ${sigma} ${full} units box
fix            lowSol solvent wall/lj93 zlo EDGE                2 1 ${full} units box
fix            lowSol solvent wall/lj93 zlo EDGE                2 1 3 units box
fix 	       lowCub cubes wall/lj93 zlo EDGE                ${epsilonWall} ${sigma} ${repulsive} units box
fix 	       lowCub cubes wall/lj93 zlo EDGE                2 ${sigma} ${repulsive} units box
fix 	       lowCub cubes wall/lj93 zlo EDGE                2 1 ${repulsive} units box
fix 	       lowCub cubes wall/lj93 zlo EDGE                2 1 0.7147 units box


###################### COMPUTES ##########################

compute        bin1 solvent chunk/atom bin/1d z lower 1.0 units box


######################  FIXES ############################


fix             peclet solvent ave/chunk 10 10 10000 bin1 density/number norm                  none ave one file density.profile

fix              temp solvent ave/chunk 10 10 10000 bin1 temp norm                  none ave one file temp.profile

fix             1 cubes rigid/nve/small molecule
  create bodies CPU = 0.002 seconds
  96 rigid bodies with 109728 atoms
  6.9282032 = max distance from body owner to body atom

fix             2 solvent nve# temp ${temp} ${temp} 10


## Thermostat
region          regthermo block EDGE EDGE EDGE EDGE 0 15
group           thermo dynamic solvent region regthermo every 1000
dynamic group thermo defined
fix             3 thermo langevin ${temp} ${temp} 10 156453
fix             3 thermo langevin 1.0 ${temp} 10 156453
fix             3 thermo langevin 1.0 1.0 10 156453


#### Load balancing

fix             bal all balance 1000 1.05 shift z 10 1.05

############### Diagnostics and computes ###################

compute        	com cubes          rigid/local   1 mol x y z
compute        	quat cubes         rigid/local   1 mol quatw quati quatj quatk

compute 	cc2 cubes 	   chunk/atom 	 molecule
compute 	msd cubes 	   msd/chunk 	 cc2

fix 		msd all ave/time  1 1 10000 c_msd[*] file dump.msd ave one mode vector

dump            1 all custom 500000 dump.lammpstrj id mol type x y z
dump		cubetrj hull custom 500000 cubes.lammpstrj id mol type x y z
dump            com cubes local 10000 dump.*.xyz c_com[*]
dump	        xyz hull xyz 100000 cubes.xyz
dump            quat cubes      local 10000 dump.*.quat c_quat[*]
#dump		mol cubes molfile 10000 mol.xyz xyz


dump            2 all image 10000 image.*.png type type zoom 1.5 size 1280 720
dump_modify     2 pad 8
dump		image cubes image 10000 image_cubes.*.png type type zoom 1.5 size 1280 720
dump_modify	image pad 8
dump            3 all movie 5000 movie.avi type type zoom 1.5 size 1280 720
dump		4 cubes movie 5000 movie_cubes.avi type type size 1280 720


thermo          1000
thermo_style    custom step temp epair evdwl etotal press pe ke atoms

restart         1000000 restart.dat
timestep        0.005
timer           full
New timer settings: style=full  mode=nosync  timeout=off

run 		10000000
Per MPI rank memory allocation (min/avg/max) = 13.99 | 19.78 | 22.80 Mbytes
Step Temp E_pair E_vdwl TotEng Press PotEng KinEng Atoms 
       0    1.0105613    -2.432095    -2.432095    -1.264939 -0.046475946    -2.432095    1.1671559   476190 
    1000    1.0107034   -2.4331176   -2.4331176   -1.2657975  0.064269372   -2.4331176    1.1673201   476190 
    2000    1.0082931   -2.4322234   -2.4322234   -1.2676871  0.058618844   -2.4322234    1.1645363   476190 
    3000    1.0099482   -2.4329566   -2.4329566   -1.2665087  0.062860239   -2.4329566    1.1664479   476190 
    4000    1.0096706   -2.4328091   -2.4328091   -1.2666819  0.066784041   -2.4328091    1.1661272   476190 
    5000    1.0086269   -2.4319736   -2.4319736   -1.2670518  0.062497249   -2.4319736    1.1649218   476190 
    6000    1.0087603     -2.43258     -2.43258   -1.2675042  0.064472942     -2.43258    1.1650759   476190 
    7000    1.0085272   -2.4331987   -2.4331987    -1.268392  0.060326146   -2.4331987    1.1648067   476190 
    8000    1.0091894   -2.4349188   -2.4349188   -1.2693474  0.072247238   -2.4349188    1.1655715   476190 
    9000    1.0110682   -2.4372144   -2.4372144    -1.269473  0.062457606   -2.4372144    1.1677414   476190 
   10000    1.0113305   -2.4376094   -2.4376094    -1.269565  0.064914352   -2.4376094    1.1680444   476190 
   11000    1.0082556   -2.4348149   -2.4348149   -1.2703219  0.073103842   -2.4348149     1.164493   476190 
   12000    1.0122626   -2.4381769   -2.4381769    -1.269056  0.067224603   -2.4381769    1.1691209   476190 
   13000    1.0108308   -2.4372249   -2.4372249   -1.2697577  0.060118374   -2.4372249    1.1674672   476190 
   14000    1.0098569   -2.4381446   -2.4381446   -1.2718021  0.073542521   -2.4381446    1.1663424   476190 
   15000    1.0107071    -2.439445    -2.439445   -1.2721207  0.067825515    -2.439445    1.1673243   476190 
   16000    1.0099394   -2.4391639   -2.4391639   -1.2727263  0.069113618   -2.4391639    1.1664377   476190 
   17000    1.0101987   -2.4392124   -2.4392124   -1.2724753  0.066549862   -2.4392124    1.1667372   476190 
   18000     1.011572   -2.4407472   -2.4407472   -1.2724239  0.065571242   -2.4407472    1.1683233   476190 
   19000    1.0119227   -2.4416572   -2.4416572   -1.2729288  0.066596429   -2.4416572    1.1687284   476190 
   20000    1.0113155   -2.4423255   -2.4423255   -1.2742984  0.068143739   -2.4423255     1.168027   476190 
   21000     1.011412   -2.4425321   -2.4425321   -1.2743936  0.073800127   -2.4425321    1.1681385   476190 
   22000    1.0113647   -2.4424415   -2.4424415   -1.2743577  0.069996205   -2.4424415    1.1680838   476190 
   23000     1.009062   -2.4411309   -2.4411309   -1.2757066  0.076013698   -2.4411309    1.1654243   476190 
   24000    1.0105545   -2.4429282   -2.4429282     -1.27578  0.068798886   -2.4429282    1.1671482   476190 
   25000    1.0111581   -2.4442134   -2.4442134   -1.2763681  0.068126809   -2.4442134    1.1678452   476190 
   26000    1.0103978   -2.4428302   -2.4428302   -1.2758631  0.071523431   -2.4428302    1.1669671   476190 
   27000    1.0094182   -2.4426582   -2.4426582   -1.2768224  0.069087948   -2.4426582    1.1658358   476190 
   28000    1.0101152   -2.4424284   -2.4424284   -1.2757877  0.064391307   -2.4424284    1.1666407   476190 
   29000    1.0082882   -2.4414923   -2.4414923   -1.2769617  0.064380718   -2.4414923    1.1645307   476190 
   30000    1.0107284   -2.4432646   -2.4432646   -1.2759156  0.075955269   -2.4432646     1.167349   476190 
   31000    1.0096018   -2.4422355   -2.4422355   -1.2761877  0.067728723   -2.4422355    1.1660478   476190 
   32000    1.0100343   -2.4438305   -2.4438305   -1.2772832  0.068819711   -2.4438305    1.1665473   476190 
   33000    1.0085094   -2.4426547   -2.4426547   -1.2778685  0.069970412   -2.4426547    1.1647862   476190 
   34000    1.0102203   -2.4446204   -2.4446204   -1.2778582  0.059556936   -2.4446204    1.1667621   476190 
   35000    1.0094214   -2.4430363   -2.4430363   -1.2771968  0.061255359   -2.4430363    1.1658394   476190 
   36000    1.0076809   -2.4410562   -2.4410562    -1.277227  0.065646714   -2.4410562    1.1638292   476190 
   37000    1.0082042   -2.4412655   -2.4412655   -1.2768319  0.073802854   -2.4412655    1.1644336   476190 
   38000    1.0100789   -2.4426624   -2.4426624   -1.2760635  0.069994667   -2.4426624    1.1665989   476190 
   39000     1.007435   -2.4396998   -2.4396998   -1.2761546  0.064673295   -2.4396998    1.1635452   476190 
   40000    1.0089545   -2.4422035   -2.4422035   -1.2769033  0.064180851   -2.4422035    1.1653002   476190 
   41000    1.0077089   -2.4415998   -2.4415998   -1.2777382  0.074064737   -2.4415998    1.1638616   476190 
   42000    1.0077553   -2.4407974   -2.4407974   -1.2768823  0.062581372   -2.4407974    1.1639152   476190 
   43000    1.0059024   -2.4386622   -2.4386622    -1.276887  0.068913137   -2.4386622    1.1617751   476190 
   44000    1.0078512   -2.4392681   -2.4392681   -1.2752422  0.067576301   -2.4392681     1.164026   476190 
   45000    1.0087495   -2.4409054   -2.4409054   -1.2758419  0.064921477   -2.4409054    1.1650634   476190 
   46000    1.0091727   -2.4407724   -2.4407724   -1.2752201  0.057224009   -2.4407724    1.1655522   476190 
   47000    1.0104867   -2.4427076   -2.4427076   -1.2756378  0.069872394   -2.4427076    1.1670698   476190 
   48000    1.0090498   -2.4415104   -2.4415104   -1.2761002  0.066806316   -2.4415104    1.1654102   476190 
   49000    1.0101864   -2.4429261   -2.4429261   -1.2762032  0.065742759   -2.4429261     1.166723   476190 
   50000     1.009255   -2.4420552   -2.4420552   -1.2764079  0.072752128   -2.4420552    1.1656473   476190 
   51000    1.0087503   -2.4421341   -2.4421341   -1.2770698  0.059335711   -2.4421341    1.1650643   476190 
   52000     1.006866   -2.4392427   -2.4392427   -1.2763547  0.071607822   -2.4392427     1.162888   476190 
   53000    1.0084192   -2.4391236   -2.4391236   -1.2744417  0.067332582   -2.4391236    1.1646819   476190 
   54000    1.0082791   -2.4402001   -2.4402001     -1.27568  0.072836953   -2.4402001    1.1645201   476190 
   55000     1.007743   -2.4405661   -2.4405661   -1.2766652  0.066035968   -2.4405661    1.1639009   476190 
   56000    1.0082868   -2.4401654   -2.4401654   -1.2756364  0.071497002   -2.4401654     1.164529   476190 
   57000    1.0092724   -2.4423531   -2.4423531   -1.2766857   0.06478816   -2.4423531    1.1656674   476190 
   58000    1.0090563   -2.4419351   -2.4419351   -1.2765174  0.067755902   -2.4419351    1.1654177   476190 
   59000    1.0090573   -2.4421587   -2.4421587   -1.2767398  0.069204868   -2.4421587    1.1654189   476190 
   60000    1.0097815   -2.4425744   -2.4425744   -1.2763191  0.067840559   -2.4425744    1.1662554   476190 
   61000    1.0095524   -2.4433054   -2.4433054   -1.2773147  0.066855086   -2.4433054    1.1659908   476190 
   62000    1.0099228   -2.4438167   -2.4438167   -1.2773981  0.068747243   -2.4438167    1.1664186   476190 
   63000    1.0081905   -2.4410983   -2.4410983   -1.2766805  0.069057299   -2.4410983    1.1644178   476190 
   64000    1.0104431   -2.4454238   -2.4454238   -1.2784044  0.065160968   -2.4454238    1.1670195   476190 
   65000    1.0079323   -2.4419629   -2.4419629   -1.2778433  0.062307061   -2.4419629    1.1641196   476190 
   66000     1.008938   -2.4421186   -2.4421186   -1.2768375  0.065789055   -2.4421186    1.1652811   476190 
   67000    1.0071955   -2.4409067   -2.4409067   -1.2776381  0.072777529   -2.4409067    1.1632686   476190 
   68000    1.0080868   -2.4425985   -2.4425985   -1.2783004  0.066893383   -2.4425985    1.1642981   476190 
   69000    1.0087372   -2.4429487   -2.4429487   -1.2778995  0.062369006   -2.4429487    1.1650492   476190 
   70000    1.0096301   -2.4439493   -2.4439493   -1.2778688  0.057174496   -2.4439493    1.1660805   476190 
   71000    1.0090196   -2.4449429   -2.4449429   -1.2795676  0.061915977   -2.4449429    1.1653753   476190 
   72000    1.0086738   -2.4431264   -2.4431264   -1.2781504  0.066317292   -2.4431264     1.164976   476190 
   73000    1.0077703   -2.4420895   -2.4420895    -1.278157  0.069849261   -2.4420895    1.1639325   476190 
   74000    1.0077588   -2.4420431   -2.4420431   -1.2781238  0.066168819   -2.4420431    1.1639192   476190 
   75000    1.0080444   -2.4431679   -2.4431679   -1.2789189  0.069621156   -2.4431679     1.164249   476190 
   76000    1.0077301   -2.4432145   -2.4432145   -1.2793284  0.077905941   -2.4432145    1.1638861   476190 
   77000    1.0096158   -2.4445574   -2.4445574   -1.2784935  0.062821278   -2.4445574    1.1660639   476190 
   78000    1.0090841   -2.4440011   -2.4440011   -1.2785512  0.071992391   -2.4440011    1.1654498   476190 
   79000    1.0099184   -2.4454894   -2.4454894   -1.2790759  0.061977237   -2.4454894    1.1664135   476190 
   80000    1.0079382   -2.4427979   -2.4427979   -1.2786715  0.066644545   -2.4427979    1.1641264   476190 
   81000    1.0088588   -2.4445497   -2.4445497   -1.2793601  0.073839586   -2.4445497    1.1651896   476190 
   82000    1.0085318   -2.4444452   -2.4444452   -1.2796333  0.067741421   -2.4444452     1.164812   476190 
   83000    1.0080028   -2.4452908   -2.4452908   -1.2810897  0.062515535   -2.4452908    1.1642011   476190 
   84000    1.0085443   -2.4449235   -2.4449235    -1.280097  0.072740176   -2.4449235    1.1648265   476190 
   85000    1.0090794   -2.4455505   -2.4455505    -1.280106   0.06562656   -2.4455505    1.1654445   476190 
   86000    1.0075024   -2.4442675   -2.4442675   -1.2806445  0.076872897   -2.4442675    1.1636231   476190 
   87000    1.0092766   -2.4461175   -2.4461175   -1.2804453  0.064435367   -2.4461175    1.1656722   476190 
   88000    1.0080777   -2.4451399   -2.4451399   -1.2808524  0.062486953   -2.4451399    1.1642875   476190 
   89000     1.008538   -2.4449401   -2.4449401    -1.280121  0.072012877   -2.4449401    1.1648191   476190 
   90000    1.0075651   -2.4442938   -2.4442938   -1.2805984  0.063124827   -2.4442938    1.1636954   476190 
   91000    1.0076116   -2.4453699   -2.4453699   -1.2816208   0.06421799   -2.4453699    1.1637491   476190 
   92000    1.0084323   -2.4457101   -2.4457101    -1.281013  0.065335289   -2.4457101     1.164697   476190 
   93000    1.0076213   -2.4447144   -2.4447144   -1.2809541  0.067158024   -2.4447144    1.1637603   476190 
   94000    1.0085258    -2.446465    -2.446465   -1.2816599  0.066980673    -2.446465    1.1648051   476190 
   95000    1.0086667   -2.4449892   -2.4449892   -1.2800214    0.0667524   -2.4449892    1.1649678   476190 
   96000    1.0074906   -2.4431604   -2.4431604    -1.279551  0.063022712   -2.4431604    1.1636094   476190 
   97000     1.009713   -2.4463201   -2.4463201    -1.280144   0.06274898   -2.4463201    1.1661762   476190 
   98000    1.0088404   -2.4446488   -2.4446488   -1.2794803  0.064772598   -2.4446488    1.1651684   476190 
   99000    1.0104775   -2.4466598   -2.4466598   -1.2796006  0.068067218   -2.4466598    1.1670592   476190 
  100000    1.0089314   -2.4437549   -2.4437549   -1.2784814  0.065905075   -2.4437549    1.1652735   476190 
  101000    1.0102565    -2.444873    -2.444873    -1.278069  0.074521983    -2.444873    1.1668039   476190 
  102000    1.0101621   -2.4460682   -2.4460682   -1.2793733  0.065353564   -2.4460682    1.1666949   476190 
  103000    1.0097702   -2.4454148   -2.4454148   -1.2791724  0.064243228   -2.4454148    1.1662423   476190 
  104000     1.010121   -2.4448321   -2.4448321   -1.2781847  0.072639028   -2.4448321    1.1666474   476190 
  105000    1.0094432   -2.4448273   -2.4448273   -1.2789627  0.069344546   -2.4448273    1.1658645   476190 
  106000    1.0083723   -2.4439144   -2.4439144   -1.2792866  0.062599809   -2.4439144    1.1646278   476190 
  107000    1.0094949   -2.4460441   -2.4460441   -1.2801198   0.07144754   -2.4460441    1.1659243   476190 
  108000    1.0080952   -2.4454564   -2.4454564   -1.2811487   0.05961472   -2.4454564    1.1643077   476190 
  109000     1.007086   -2.4444686   -2.4444686   -1.2813264  0.064123856   -2.4444686    1.1631421   476190 
  110000    1.0071837   -2.4452755   -2.4452755   -1.2820205  0.068976136   -2.4452755     1.163255   476190 
  111000    1.0062933   -2.4439123   -2.4439123   -1.2816856  0.063382629   -2.4439123    1.1622266   476190 
  112000    1.0080287   -2.4454449   -2.4454449   -1.2812141  0.068177925   -2.4454449    1.1642309   476190 
  113000    1.0088006   -2.4462706   -2.4462706   -1.2811482  0.061405668   -2.4462706    1.1651224   476190 
  114000    1.0081571   -2.4456542   -2.4456542   -1.2812751   0.06426189   -2.4456542    1.1643792   476190 
  115000    1.0077463    -2.445495    -2.445495   -1.2815902  0.061699295    -2.445495    1.1639048   476190 
  116000    1.0088168   -2.4463242   -2.4463242    -1.281183  0.067884154   -2.4463242    1.1651412   476190 
  117000     1.008449   -2.4449341   -2.4449341   -1.2802177  0.066871322   -2.4449341    1.1647163   476190 
  118000    1.0069421   -2.4444566   -2.4444566   -1.2814807  0.066600674   -2.4444566    1.1629759   476190 
  119000    1.0073863    -2.443192    -2.443192    -1.279703  0.064113498    -2.443192     1.163489   476190 
  120000    1.0081202   -2.4437373   -2.4437373   -1.2794007  0.076833177   -2.4437373    1.1643366   476190 
  121000    1.0077438   -2.4438127   -2.4438127   -1.2799107  0.071702491   -2.4438127    1.1639019   476190 
  122000    1.0086854   -2.4453699   -2.4453699   -1.2803806  0.071158024   -2.4453699    1.1649893   476190 
  123000    1.0077561   -2.4446605   -2.4446605   -1.2807445  0.070419902   -2.4446605     1.163916   476190 
  124000    1.0100912   -2.4472111   -2.4472111   -1.2805981  0.065365139   -2.4472111     1.166613   476190 
  125000    1.0103492   -2.4477025   -2.4477025   -1.2807915  0.064589918   -2.4477025     1.166911   476190 
  126000    1.0099303   -2.4461845   -2.4461845   -1.2797572  0.061236926   -2.4461845    1.1664272   476190 
  127000    1.0084352   -2.4452742   -2.4452742   -1.2805739  0.065000385   -2.4452742    1.1647004   476190 
  128000    1.0060113   -2.4420603   -2.4420603   -1.2801595  0.070263809   -2.4420603    1.1619009   476190 
  129000    1.0084332   -2.4455589   -2.4455589   -1.2808608  0.065903626   -2.4455589    1.1646981   476190 
  130000    1.0082981   -2.4467923   -2.4467923   -1.2822503  0.065965335   -2.4467923    1.1645421   476190 
  131000    1.0073114   -2.4455762   -2.4455762   -1.2821737  0.069391365   -2.4455762    1.1634025   476190 
  132000    1.0080959   -2.4458963   -2.4458963   -1.2815878  0.071714801   -2.4458963    1.1643085   476190 
  133000    1.0068394   -2.4451674   -2.4451674   -1.2823101  0.069401912   -2.4451674    1.1628573   476190 
  134000    1.0067178   -2.4459585   -2.4459585   -1.2832416   0.07169051   -2.4459585    1.1627169   476190 
  135000    1.0079223   -2.4469519   -2.4469519   -1.2828439  0.063592421   -2.4469519     1.164108   476190 
  136000    1.0074341   -2.4465616   -2.4465616   -1.2830174  0.067512144   -2.4465616    1.1635442   476190 
  137000    1.0075855   -2.4471601   -2.4471601   -1.2834411  0.062828936   -2.4471601    1.1637191   476190 
  138000    1.0076383   -2.4469247   -2.4469247   -1.2831447  0.064840308   -2.4469247      1.16378   476190 
  139000    1.0069784   -2.4463655   -2.4463655   -1.2833476  0.059572809   -2.4463655    1.1630179   476190 
  140000     1.007517   -2.4463064   -2.4463064   -1.2826665  0.068413146   -2.4463064    1.1636399   476190 
  141000     1.005434   -2.4448659   -2.4448659   -1.2836318  0.068243474   -2.4448659    1.1612341   476190 
  142000    1.0076201   -2.4469036   -2.4469036   -1.2831446  0.064233329   -2.4469036     1.163759   476190 
  143000    1.0063699   -2.4460496   -2.4460496   -1.2837346  0.067568743   -2.4460496     1.162315   476190 
  144000    1.0095885   -2.4498735   -2.4498735   -1.2838411  0.062910213   -2.4498735    1.1660324   476190 
  145000    1.0068362   -2.4469214   -2.4469214   -1.2840678  0.065547928   -2.4469214    1.1628537   476190 
  146000    1.0075804   -2.4478987   -2.4478987   -1.2841855  0.065202986   -2.4478987    1.1637132   476190 
  147000    1.0069968   -2.4463721   -2.4463721    -1.283333  0.067948893   -2.4463721    1.1630391   476190 
  148000    1.0080553   -2.4472045   -2.4472045   -1.2829429  0.066171284   -2.4472045    1.1642616   476190 
  149000    1.0097409   -2.4492954   -2.4492954   -1.2830869  0.066714982   -2.4492954    1.1662084   476190 
  150000    1.0071066   -2.4464744   -2.4464744   -1.2833084  0.065368206   -2.4464744     1.163166   476190 
  151000    1.0079729   -2.4478864   -2.4478864   -1.2837199  0.066816379   -2.4478864    1.1641665   476190 
  152000    1.0076685   -2.4481869   -2.4481869    -1.284372  0.062387204   -2.4481869    1.1638149   476190 
  153000    1.0075031   -2.4487834   -2.4487834   -1.2851595  0.068411383   -2.4487834    1.1636239   476190 
  154000     1.008819    -2.448891    -2.448891   -1.2837473    0.0627477    -2.448891    1.1651437   476190 
  155000     1.009148   -2.4487716   -2.4487716   -1.2832479  0.064555335   -2.4487716    1.1655237   476190 
  156000    1.0075468   -2.4471722   -2.4471722   -1.2834978  0.075718592   -2.4471722    1.1636744   476190 
  157000    1.0083283   -2.4482165   -2.4482165   -1.2836396  0.066304427   -2.4482165     1.164577   476190 
  158000    1.0094985   -2.4479175   -2.4479175   -1.2819891  0.075339131   -2.4479175    1.1659285   476190 
  159000    1.0093909    -2.447714    -2.447714   -1.2819098  0.072914412    -2.447714    1.1658042   476190 
  160000    1.0116303   -2.4492219   -2.4492219   -1.2808313  0.068254829   -2.4492219    1.1683906   476190 
  161000    1.0111164   -2.4492768   -2.4492768   -1.2814798   0.07267057   -2.4492768     1.167797   476190 
  162000    1.0091786    -2.447546    -2.447546    -1.281987  0.077360504    -2.447546     1.165559   476190 
  163000    1.0085939   -2.4475754   -2.4475754   -1.2826917  0.069729137   -2.4475754    1.1648837   476190 
  164000    1.0097041   -2.4481849   -2.4481849    -1.282019  0.073689804   -2.4481849    1.1661659   476190 
  165000    1.0080958   -2.4474053   -2.4474053   -1.2830969  0.070695086   -2.4474053    1.1643084   476190 
  166000    1.0083181   -2.4477677   -2.4477677   -1.2832026  0.068316083   -2.4477677    1.1645651   476190 
  167000    1.0079354    -2.447355    -2.447355   -1.2832318  0.068804867    -2.447355    1.1641231   476190 
  168000    1.0086804   -2.4476568   -2.4476568   -1.2826731  0.068235308   -2.4476568    1.1649836   476190 
  169000    1.0074943   -2.4479532   -2.4479532   -1.2843395  0.057913058   -2.4479532    1.1636137   476190 
  170000    1.0068982   -2.4452451   -2.4452451   -1.2823199  0.058468213   -2.4452451    1.1629253   476190 
  171000    1.0068258   -2.4462989   -2.4462989   -1.2834573  0.066731221   -2.4462989    1.1628417   476190 
  172000    1.0077421    -2.447203    -2.447203   -1.2833031  0.067586622    -2.447203    1.1638999   476190 
  173000    1.0092909   -2.4482852   -2.4482852   -1.2825964  0.071793596   -2.4482852    1.1656888   476190 
  174000    1.0091901   -2.4480548   -2.4480548   -1.2824825  0.069039387   -2.4480548    1.1655723   476190 
  175000    1.0069435   -2.4454207   -2.4454207   -1.2824432  0.070901625   -2.4454207    1.1629775   476190 
  176000    1.0099247   -2.4485582   -2.4485582   -1.2821375  0.064456357   -2.4485582    1.1664207   476190 
  177000    1.0088792   -2.4478502   -2.4478502    -1.282637  0.070378459   -2.4478502    1.1652132   476190 
  178000    1.0099979   -2.4485935   -2.4485935   -1.2820882  0.065378254   -2.4485935    1.1665053   476190 
  179000    1.0078722   -2.4465245   -2.4465245   -1.2824744  0.065440671   -2.4465245    1.1640502   476190 
  180000    1.0082423    -2.447598    -2.447598   -1.2831203  0.068755024    -2.447598    1.1644776   476190 
  181000    1.0070195   -2.4460443   -2.4460443    -1.282979   0.06344884   -2.4460443    1.1630653   476190 
  182000    1.0082923   -2.4467102   -2.4467102   -1.2821748  0.063169799   -2.4467102    1.1645354   476190 
  183000    1.0075386   -2.4453623   -2.4453623   -1.2816975  0.068966786   -2.4453623    1.1636648   476190 
  184000    1.0082859   -2.4465128   -2.4465128   -1.2819848  0.070883231   -2.4465128     1.164528   476190 
  185000    1.0077216   -2.4451921   -2.4451921   -1.2813159  0.071681196   -2.4451921    1.1638762   476190 
  186000    1.0086334   -2.4455343   -2.4455343    -1.280605  0.070290085   -2.4455343    1.1649293   476190 
  187000    1.0076391   -2.4441131   -2.4441131   -1.2803322   0.06147057   -2.4441131    1.1637809   476190 
  188000    1.0086602   -2.4451205   -2.4451205   -1.2801602  0.073794003   -2.4451205    1.1649603   476190 
  189000    1.0073377   -2.4442221   -2.4442221   -1.2807894  0.067664728   -2.4442221    1.1634328   476190 
  190000    1.0095046   -2.4469496   -2.4469496   -1.2810141  0.071407257   -2.4469496    1.1659356   476190 
  191000     1.010265   -2.4481037   -2.4481037   -1.2812899  0.065145608   -2.4481037    1.1668137   476190 
  192000    1.0089832    -2.446607    -2.446607   -1.2812737  0.066512012    -2.446607    1.1653333   476190 
  193000    1.0090086   -2.4457531   -2.4457531   -1.2803905  0.072103784   -2.4457531    1.1653626   476190 
  194000    1.0089043   -2.4473065   -2.4473065   -1.2820643  0.067999665   -2.4473065    1.1652422   476190 
  195000     1.009037   -2.4472175   -2.4472175   -1.2818219   0.07784176   -2.4472175    1.1653955   476190 
  196000    1.0082234   -2.4455485   -2.4455485   -1.2810927   0.06563191   -2.4455485    1.1644558   476190 
  197000    1.0093067   -2.4461775   -2.4461775   -1.2804705  0.067205714   -2.4461775     1.165707   476190 
  198000    1.0096025   -2.4459683   -2.4459683   -1.2799198  0.075315709   -2.4459683    1.1660486   476190 
  199000    1.0115521   -2.4480328   -2.4480328   -1.2797325  0.065997655   -2.4480328    1.1683003   476190 
  200000    1.0096506   -2.4452316   -2.4452316   -1.2791274   0.06639414   -2.4452316    1.1661041   476190 
  201000    1.0108336   -2.4463754   -2.4463754   -1.2789049  0.067676915   -2.4463754    1.1674705   476190 
  202000    1.0089139   -2.4452255   -2.4452255   -1.2799723  0.071614276   -2.4452255    1.1652533   476190 
  203000    1.0094814   -2.4451402   -2.4451402   -1.2792315  0.067267846   -2.4451402    1.1659088   476190 
  204000    1.0101299   -2.4462763   -2.4462763   -1.2796187  0.072344617   -2.4462763    1.1666577   476190 
  205000    1.0103175   -2.4464575   -2.4464575   -1.2795831  0.065386799   -2.4464575    1.1668744   476190 
  206000     1.007544   -2.4438482   -2.4438482   -1.2801771  0.062665708   -2.4438482    1.1636711   476190 
  207000    1.0081364   -2.4448033   -2.4448033    -1.280448  0.050535526   -2.4448033    1.1643553   476190 
  208000    1.0061785   -2.4426371   -2.4426371   -1.2805431  0.068760597   -2.4426371    1.1620941   476190 
  209000    1.0064645   -2.4428098   -2.4428098   -1.2803855  0.067408467   -2.4428098    1.1624244   476190 
  210000    1.0068977   -2.4446689   -2.4446689   -1.2817442  0.070356105   -2.4446689    1.1629247   476190 
  211000      1.00769   -2.4449199   -2.4449199   -1.2810802  0.063327857   -2.4449199    1.1638397   476190 
  212000      1.00867   -2.4457631   -2.4457631   -1.2807915  0.064918636   -2.4457631    1.1649716   476190 
  213000    1.0077593   -2.4458713   -2.4458713   -1.2819516  0.065220227   -2.4458713    1.1639197   476190 
  214000    1.0066757   -2.4458198   -2.4458198   -1.2831515  0.065228673   -2.4458198    1.1626683   476190 
  215000    1.0081245   -2.4478857   -2.4478857   -1.2835442  0.066708983   -2.4478857    1.1643415   476190 
  216000    1.0058868   -2.4432349   -2.4432349   -1.2814778  0.072538616   -2.4432349    1.1617571   476190 
  217000    1.0085874   -2.4468343   -2.4468343    -1.281958  0.062264563   -2.4468343    1.1648762   476190 
  218000    1.0093019   -2.4469702   -2.4469702   -1.2812688  0.064725574   -2.4469702    1.1657014   476190 
  219000    1.0079983   -2.4466482   -2.4466482   -1.2824524  0.071309688   -2.4466482    1.1641958   476190 
  220000    1.0100031   -2.4482287   -2.4482287   -1.2817175  0.067492613   -2.4482287    1.1665113   476190 
  221000    1.0103863   -2.4490672   -2.4490672   -1.2821134   0.07271072   -2.4490672    1.1669538   476190 
  222000     1.012316    -2.450579    -2.450579   -1.2813964  0.068331908    -2.450579    1.1691826   476190 
  223000    1.0102743   -2.4485641   -2.4485641   -1.2817396  0.066260248   -2.4485641    1.1668245   476190 
  224000    1.0114592   -2.4512643   -2.4512643   -1.2830713  0.074196128   -2.4512643     1.168193   476190 
  225000     1.011082   -2.4507997   -2.4507997   -1.2830423  0.067199549   -2.4507997    1.1677574   476190 
  226000    1.0124742   -2.4522569   -2.4522569   -1.2828916  0.071583545   -2.4522569    1.1693653   476190 
  227000    1.0114022   -2.4504803   -2.4504803   -1.2823532  0.075415239   -2.4504803    1.1681271   476190 
  228000     1.011178    -2.450729    -2.450729   -1.2828608  0.080699483    -2.450729    1.1678683   476190 
  229000    1.0096884   -2.4489719   -2.4489719    -1.282824  0.065402521   -2.4489719    1.1661478   476190 
  230000    1.0098086    -2.449831    -2.449831   -1.2835444  0.064223024    -2.449831    1.1662866   476190 
  231000    1.0085096   -2.4490673   -2.4490673    -1.284281  0.066325598   -2.4490673    1.1647863   476190 
  232000    1.0096528   -2.4496847   -2.4496847    -1.283578  0.066248311   -2.4496847    1.1661067   476190 
  233000     1.010011   -2.4516534   -2.4516534    -1.285133  0.069388295   -2.4516534    1.1665204   476190 
  234000    1.0091446   -2.4500797   -2.4500797   -1.2845599  0.068102475   -2.4500797    1.1655198   476190 
  235000    1.0091022   -2.4497557   -2.4497557    -1.284285   0.06662598   -2.4497557    1.1654708   476190 
  236000    1.0096488   -2.4505733   -2.4505733   -1.2844712  0.069204673   -2.4505733    1.1661021   476190 
  237000    1.0082955   -2.4492052   -2.4492052   -1.2846662  0.062999951   -2.4492052    1.1645391   476190 
  238000    1.0101455   -2.4513477   -2.4513477    -1.284672  0.064405461   -2.4513477    1.1666757   476190 
  239000    1.0071634   -2.4480458   -2.4480458   -1.2848143  0.065901696   -2.4480458    1.1632315   476190 
  240000    1.0081606   -2.4487366   -2.4487366   -1.2843533  0.060781257   -2.4487366    1.1643833   476190 
  241000    1.0082212   -2.4480107   -2.4480107   -1.2835574  0.066382108   -2.4480107    1.1644532   476190 
  242000    1.0068601   -2.4462799   -2.4462799   -1.2833987  0.058453447   -2.4462799    1.1628812   476190 
  243000    1.0080978   -2.4471272   -2.4471272   -1.2828164  0.059521706   -2.4471272    1.1643108   476190 
  244000    1.0089419   -2.4483985   -2.4483985   -1.2831129  0.069940418   -2.4483985    1.1652856   476190 
  245000    1.0084645   -2.4465674   -2.4465674   -1.2818332  0.068533437   -2.4465674    1.1647342   476190 
  246000    1.0086294   -2.4473117   -2.4473117    -1.282387  0.060901787   -2.4473117    1.1649247   476190 
  247000    1.0075363   -2.4462663   -2.4462663   -1.2826041  0.060420453   -2.4462663    1.1636622   476190 
  248000    1.0082799   -2.4472182   -2.4472182   -1.2826971  0.068366733   -2.4472182    1.1645211   476190 
  249000    1.0079209   -2.4458902   -2.4458902   -1.2817838  0.059255528   -2.4458902    1.1641064   476190 
  250000    1.0057916   -2.4453862   -2.4453862    -1.283739  0.061800962   -2.4453862    1.1616471   476190 
  251000      1.00817   -2.4477122   -2.4477122    -1.283318  0.063679564   -2.4477122    1.1643941   476190 
  252000    1.0073285   -2.4465982   -2.4465982    -1.283176  0.070357909   -2.4465982    1.1634222   476190 
  253000    1.0074129   -2.4473696   -2.4473696   -1.2838499  0.067412126   -2.4473696    1.1635197   476190 
  254000    1.0089392    -2.448003    -2.448003   -1.2827205  0.066076473    -2.448003    1.1652825   476190 
  255000    1.0084239   -2.4472376   -2.4472376   -1.2825503  0.057378968   -2.4472376    1.1646873   476190 
  256000    1.0088901   -2.4477259   -2.4477259   -1.2825001  0.064055069   -2.4477259    1.1652258   476190 
  257000    1.0087175   -2.4481076   -2.4481076   -1.2830811  0.063539072   -2.4481076    1.1650265   476190 
  258000    1.0072862    -2.446488    -2.446488   -1.2831147   0.06237076    -2.446488    1.1633734   476190 
  259000    1.0081791   -2.4487249   -2.4487249   -1.2843203  0.067084329   -2.4487249    1.1644046   476190 
  260000    1.0092841   -2.4503162   -2.4503162   -1.2846354  0.073958998   -2.4503162    1.1656808   476190 
  261000    1.0082474   -2.4488429   -2.4488429   -1.2843594  0.064312725   -2.4488429    1.1644835   476190 
  262000    1.0081033    -2.448708    -2.448708   -1.2843909  0.064128818    -2.448708    1.1643171   476190 
  263000    1.0090155   -2.4503097   -2.4503097    -1.284939  0.065626938   -2.4503097    1.1653706   476190 
  264000     1.007633    -2.447195    -2.447195   -1.2834211  0.064836314    -2.447195    1.1637739   476190 
  265000    1.0094744   -2.4500487   -2.4500487    -1.284148  0.064411303   -2.4500487    1.1659007   476190 
  266000    1.0113953   -2.4520809   -2.4520809   -1.2839617  0.071801917   -2.4520809    1.1681192   476190 
  267000    1.0115365   -2.4516407   -2.4516407   -1.2833584  0.072901413   -2.4516407    1.1682823   476190 
  268000    1.0117136   -2.4518452   -2.4518452   -1.2833584  0.077958562   -2.4518452    1.1684868   476190 
  269000    1.0109715   -2.4517186   -2.4517186   -1.2840888  0.067402434   -2.4517186    1.1676298   476190 
  270000    1.0106537   -2.4521472   -2.4521472   -1.2848846  0.066014959   -2.4521472    1.1672627   476190 
  271000    1.0088351   -2.4503966   -2.4503966   -1.2852344  0.064537562   -2.4503966    1.1651622   476190 
  272000    1.0094531   -2.4510072   -2.4510072   -1.2851312  0.067767218   -2.4510072    1.1658761   476190 
  273000    1.0077811   -2.4491178   -2.4491178   -1.2851728  0.066769106   -2.4491178     1.163945   476190 
  274000    1.0088801   -2.4499214   -2.4499214   -1.2847072  0.072212119   -2.4499214    1.1652142   476190 
  275000    1.0081901   -2.4491805   -2.4491805   -1.2847632  0.066726137   -2.4491805    1.1644173   476190 
  276000    1.0084441   -2.4505838   -2.4505838   -1.2858731  0.060230986   -2.4505838    1.1647107   476190 
  277000    1.0070786   -2.4479909   -2.4479909   -1.2848573  0.068384573   -2.4479909    1.1631335   476190 
  278000    1.0082911   -2.4501083   -2.4501083   -1.2855743  0.065145181   -2.4501083     1.164534   476190 
  279000    1.0083923   -2.4492396   -2.4492396   -1.2845888  0.071886524   -2.4492396    1.1646509   476190 
  280000    1.0084499   -2.4498734   -2.4498734    -1.285156  0.069341705   -2.4498734    1.1647174   476190 
  281000    1.0087169   -2.4496841   -2.4496841   -1.2846583  0.065644549   -2.4496841    1.1650258   476190 
  282000    1.0090657    -2.450189    -2.450189   -1.2847604  0.066125477    -2.450189    1.1654286   476190 
  283000    1.0075201     -2.44801     -2.44801   -1.2843666  0.070793934     -2.44801    1.1636435   476190 
  284000    1.0071244   -2.4482164   -2.4482164   -1.2850299  0.072383273   -2.4482164    1.1631865   476190 
  285000    1.0075738   -2.4482294   -2.4482294   -1.2845239  0.064885298   -2.4482294    1.1637055   476190 
  286000    1.0076548   -2.4481901   -2.4481901    -1.284391  0.064849345   -2.4481901    1.1637991   476190 
  287000    1.0075031   -2.4478106   -2.4478106   -1.2841868  0.069927085   -2.4478106    1.1636238   476190 
  288000    1.0082568   -2.4479036   -2.4479036   -1.2834093   0.07124276   -2.4479036    1.1644943   476190 
  289000    1.0071821   -2.4472988   -2.4472988   -1.2840456  0.066910362   -2.4472988    1.1632531   476190 
  290000    1.0087411   -2.4483214   -2.4483214   -1.2832677  0.064865603   -2.4483214    1.1650537   476190 
  291000    1.0075401    -2.448091    -2.448091   -1.2844244  0.064913379    -2.448091    1.1636666   476190 
  292000     1.007573   -2.4475964   -2.4475964   -1.2838918  0.065779896   -2.4475964    1.1637046   476190 
  293000    1.0068293   -2.4469652   -2.4469652   -1.2841195  0.067132441   -2.4469652    1.1628457   476190 
  294000    1.0075699   -2.4480074   -2.4480074   -1.2843065  0.065814469   -2.4480074     1.163701   476190 
  295000    1.0081233   -2.4489873   -2.4489873   -1.2846471   0.06498469   -2.4489873    1.1643402   476190 
  296000    1.0096269   -2.4514339   -2.4514339   -1.2853571   0.06482206   -2.4514339    1.1660768   476190 
  297000    1.0065392   -2.4485761   -2.4485761   -1.2860655  0.066869797   -2.4485761    1.1625106   476190 
  298000    1.0074267   -2.4479075   -2.4479075   -1.2843719   0.06477175   -2.4479075    1.1635356   476190 
  299000    1.0085352   -2.4493217   -2.4493217   -1.2845058  0.066237522   -2.4493217    1.1648159   476190 
  300000    1.0082809   -2.4480866   -2.4480866   -1.2835644  0.072333182   -2.4480866    1.1645222   476190 
  301000     1.008126    -2.448843    -2.448843   -1.2844997  0.066646662    -2.448843    1.1643433   476190 
  302000    1.0091789   -2.4500511   -2.4500511   -1.2844918    0.0733265   -2.4500511    1.1655594   476190 
  303000    1.0095075   -2.4513983   -2.4513983   -1.2854594  0.065975844   -2.4513983    1.1659389   476190 
  304000    1.0088343   -2.4518705   -2.4518705   -1.2867092  0.066889811   -2.4518705    1.1651613   476190 
  305000    1.0095649   -2.4530948   -2.4530948   -1.2870896  0.065608447   -2.4530948    1.1660052   476190 
  306000    1.0090665   -2.4522934   -2.4522934   -1.2868638  0.073395201   -2.4522934    1.1654296   476190 
  307000    1.0109832   -2.4533698   -2.4533698   -1.2857265  0.073138893   -2.4533698    1.1676433   476190 
  308000     1.009723   -2.4523971   -2.4523971   -1.2862094   0.07048602   -2.4523971    1.1661878   476190 
  309000    1.0073576   -2.4496735   -2.4496735   -1.2862176  0.067943325   -2.4496735    1.1634558   476190 
  310000    1.0088358   -2.4521798   -2.4521798   -1.2870167  0.067575262   -2.4521798    1.1651631   476190 
  311000    1.0091649   -2.4529766   -2.4529766   -1.2874334  0.061607442   -2.4529766    1.1655432   476190 
  312000    1.0091304   -2.4519211   -2.4519211   -1.2864178    0.0663411   -2.4519211    1.1655033   476190 
  313000    1.0099281   -2.4534463   -2.4534463   -1.2870217  0.075924152   -2.4534463    1.1664246   476190 
  314000    1.0101725   -2.4530035   -2.4530035   -1.2862966  0.063817012   -2.4530035    1.1667069   476190 
  315000    1.0085293   -2.4510612   -2.4510612   -1.2862521   0.06020712   -2.4510612    1.1648091   476190 
  316000    1.0100788   -2.4530267   -2.4530267    -1.286428  0.065806149   -2.4530267    1.1665987   476190 
  317000     1.009695   -2.4526137   -2.4526137   -1.2864583  0.069537907   -2.4526137    1.1661554   476190 
  318000    1.0082927   -2.4506861   -2.4506861   -1.2861502   0.08025395   -2.4506861    1.1645359   476190 
  319000    1.0112728   -2.4543062   -2.4543062   -1.2863285  0.066724543   -2.4543062    1.1679778   476190 
  320000    1.0105987   -2.4529687   -2.4529687   -1.2857696  0.063726566   -2.4529687    1.1671991   476190 
  321000    1.0090933   -2.4528091   -2.4528091   -1.2873486  0.064993094   -2.4528091    1.1654605   476190 
  322000    1.0089318   -2.4529115   -2.4529115   -1.2876376  0.070529818   -2.4529115    1.1652739   476190 
  323000    1.0089357   -2.4521215   -2.4521215   -1.2868431  0.061855808   -2.4521215    1.1652784   476190 
  324000    1.0083454   -2.4504169   -2.4504169   -1.2858202  0.074438097   -2.4504169    1.1645967   476190 
  325000    1.0095854   -2.4514365   -2.4514365   -1.2854076  0.069481718   -2.4514365    1.1660289   476190 
  326000    1.0060436   -2.4483203   -2.4483203    -1.286382  0.065829649   -2.4483203    1.1619382   476190 
  327000    1.0065794   -2.4481987   -2.4481987   -1.2856417  0.068292756   -2.4481987    1.1625571   476190 
  328000    1.0084919   -2.4497673   -2.4497673   -1.2850014  0.067140242   -2.4497673    1.1647659   476190 
  329000    1.0093606   -2.4504155   -2.4504155   -1.2846463  0.066193551   -2.4504155    1.1657692   476190 
  330000    1.0102665   -2.4510231   -2.4510231   -1.2842077  0.067727969   -2.4510231    1.1668155   476190 
  331000    1.0106072   -2.4520879   -2.4520879   -1.2848789  0.065816919   -2.4520879     1.167209   476190 
  332000    1.0104149   -2.4522056   -2.4522056   -1.2852188  0.062425107   -2.4522056    1.1669868   476190 
  333000     1.010027   -2.4515171   -2.4515171   -1.2849783  0.066804063   -2.4515171    1.1665389   476190 
  334000    1.0086786   -2.4511074   -2.4511074   -1.2861259  0.067434614   -2.4511074    1.1649815   476190 
  335000    1.0063344   -2.4485278   -2.4485278   -1.2862538  0.066962676   -2.4485278     1.162274   476190 
  336000    1.0074549   -2.4494293   -2.4494293   -1.2858611  0.065152361   -2.4494293    1.1635683   476190 
  337000    1.0062524   -2.4487264   -2.4487264    -1.286547  0.059279554   -2.4487264    1.1621794   476190 
  338000    1.0084722   -2.4505192   -2.4505192   -1.2857761  0.065722102   -2.4505192    1.1647431   476190 
  339000    1.0080426   -2.4497078   -2.4497078   -1.2854608  0.062420997   -2.4497078     1.164247   476190 
  340000    1.0080186   -2.4495805   -2.4495805   -1.2853613  0.060747107   -2.4495805    1.1642192   476190 
  341000    1.0080267   -2.4505894   -2.4505894   -1.2863609  0.070411355   -2.4505894    1.1642286   476190 
  342000    1.0090027   -2.4523636   -2.4523636   -1.2870078  0.070780682   -2.4523636    1.1653559   476190 
  343000    1.0103285   -2.4530251   -2.4530251    -1.286138  0.071520486   -2.4530251    1.1668871   476190 
  344000    1.0091693   -2.4502385   -2.4502385   -1.2846903  0.072151905   -2.4502385    1.1655482   476190 
  345000    1.0106438   -2.4519175   -2.4519175   -1.2846663  0.071738686   -2.4519175    1.1672512   476190 
  346000    1.0088175   -2.4501301   -2.4501301   -1.2849881  0.072930898   -2.4501301     1.165142   476190 
  347000    1.0093448   -2.4512919   -2.4512919    -1.285541  0.068754957   -2.4512919     1.165751   476190 
  348000    1.0112449   -2.4532947   -2.4532947   -1.2853493  0.062529375   -2.4532947    1.1679454   476190 
  349000    1.0077757   -2.4496353   -2.4496353   -1.2856965  0.068079123   -2.4496353    1.1639387   476190 
  350000    1.0088644    -2.449659    -2.449659    -1.284463  0.068420265    -2.449659    1.1651961   476190 
  351000    1.0084669   -2.4501393   -2.4501393   -1.2854022  0.072358546   -2.4501393    1.1647371   476190 
  352000    1.0097628   -2.4511758   -2.4511758   -1.2849421  0.068045887   -2.4511758    1.1662337   476190 
  353000     1.009396   -2.4503031   -2.4503031    -1.284493  0.068913572   -2.4503031    1.1658101   476190 
  354000    1.0085657   -2.4491835   -2.4491835   -1.2843324  0.074910409   -2.4491835    1.1648512   476190 
  355000    1.0103564   -2.4521811   -2.4521811   -1.2852619  0.068007854   -2.4521811    1.1669193   476190 
  356000    1.0079836   -2.4499858   -2.4499858    -1.285807  0.063342784   -2.4499858    1.1641788   476190 
  357000    1.0090842   -2.4504614   -2.4504614   -1.2850114  0.070846083   -2.4504614      1.16545   476190 
  358000    1.0095898   -2.4498257   -2.4498257   -1.2837919  0.061112876   -2.4498257    1.1660339   476190 
  359000    1.0099418   -2.4505661   -2.4505661   -1.2841257  0.063836598   -2.4505661    1.1664404   476190 
  360000    1.0090044   -2.4502905   -2.4502905   -1.2849327   0.06828305   -2.4502905    1.1653578   476190 
  361000    1.0087868   -2.4492691   -2.4492691   -1.2841626  0.065186023   -2.4492691    1.1651065   476190 
  362000    1.0067033   -2.4470556   -2.4470556   -1.2843554  0.065258681   -2.4470556    1.1627001   476190 
  363000    1.0075055   -2.4480032   -2.4480032   -1.2843765  0.069952951   -2.4480032    1.1636267   476190 
  364000    1.0063628   -2.4465039   -2.4465039    -1.284197   0.06354044   -2.4465039    1.1623069   476190 
  365000    1.0058783   -2.4461353   -2.4461353    -1.284388  0.064541624   -2.4461353    1.1617473   476190 
  366000    1.0072202   -2.4480718   -2.4480718   -1.2847747  0.068834865   -2.4480718    1.1632972   476190 
  367000    1.0069525   -2.4476103   -2.4476103   -1.2846223  0.071231455   -2.4476103    1.1629879   476190 
  368000    1.0089202    -2.449936    -2.449936   -1.2846755  0.067391239    -2.449936    1.1652605   476190 
  369000    1.0075997   -2.4490777   -2.4490777   -1.2853422  0.070910922   -2.4490777    1.1637355   476190 
  370000    1.0096482    -2.450005    -2.450005   -1.2839036  0.064665717    -2.450005    1.1661014   476190 
  371000    1.0101977   -2.4515567   -2.4515567   -1.2848207  0.066092161   -2.4515567     1.166736   476190 
  372000    1.0109791   -2.4516619   -2.4516619   -1.2840233  0.071042815   -2.4516619    1.1676386   476190 
  373000    1.0106245   -2.4501816   -2.4501816   -1.2829526  0.069475699   -2.4501816    1.1672289   476190 
  374000    1.0101943   -2.4490914   -2.4490914   -1.2823593  0.066196627   -2.4490914    1.1667321   476190 
  375000      1.00938   -2.4479172   -2.4479172   -1.2821256  0.074949808   -2.4479172    1.1657916   476190 
  376000    1.0089524   -2.4492498   -2.4492498   -1.2839521  0.069315679   -2.4492498    1.1652977   476190 
  377000    1.0104925   -2.4519122   -2.4519122   -1.2848357  0.062429817   -2.4519122    1.1670765   476190 
  378000    1.0088548   -2.4504018   -2.4504018   -1.2852168  0.071186511   -2.4504018    1.1651851   476190 
  379000    1.0094656   -2.4507436   -2.4507436   -1.2848531  0.071077004   -2.4507436    1.1658905   476190 
  380000    1.0088092   -2.4510225   -2.4510225   -1.2858901  0.065661007   -2.4510225    1.1651324   476190 
  381000    1.0096039   -2.4521597   -2.4521597   -1.2861095  0.070377318   -2.4521597    1.1660502   476190 
  382000    1.0081165   -2.4511376   -2.4511376   -1.2868053  0.065564774   -2.4511376    1.1643323   476190 
  383000    1.0084778   -2.4516069   -2.4516069   -1.2868573   0.06951915   -2.4516069    1.1647496   476190 
  384000     1.006536   -2.4501088   -2.4501088   -1.2876019  0.065734912   -2.4501088    1.1625069   476190 
  385000    1.0069092   -2.4494543   -2.4494543   -1.2865163  0.064663209   -2.4494543     1.162938   476190 
  386000    1.0066677   -2.4496579   -2.4496579   -1.2869989   0.07171151   -2.4496579    1.1626591   476190 
  387000     1.008452   -2.4517333   -2.4517333   -1.2870134  0.062802764   -2.4517333    1.1647198   476190 
  388000    1.0083036    -2.451462    -2.451462   -1.2869136   0.06863218    -2.451462    1.1645484   476190 
  389000    1.0092822   -2.4522897   -2.4522897   -1.2866111  0.073286507   -2.4522897    1.1656786   476190 
  390000    1.0091313   -2.4530888   -2.4530888   -1.2875845  0.069876853   -2.4530888    1.1655044   476190 
  391000     1.009354   -2.4526923   -2.4526923   -1.2869308  0.071321092   -2.4526923    1.1657616   476190 
  392000     1.008596   -2.4515709   -2.4515709   -1.2866847  0.074907928   -2.4515709    1.1648862   476190 
  393000    1.0099754   -2.4543035   -2.4543035   -1.2878243  0.070521482   -2.4543035    1.1664792   476190 
  394000     1.009595   -2.4531842   -2.4531842   -1.2871442  0.066881473   -2.4531842    1.1660399   476190 
  395000    1.0088841   -2.4526204   -2.4526204   -1.2874015  0.065476939   -2.4526204    1.1652189   476190 
  396000    1.0101189   -2.4549449   -2.4549449   -1.2882998  0.072301481   -2.4549449     1.166645   476190 
  397000    1.0094618   -2.4532333   -2.4532333   -1.2873472  0.070237469   -2.4532333    1.1658861   476190 
  398000    1.0078157   -2.4514444   -2.4514444   -1.2874595   0.06676546   -2.4514444    1.1639849   476190 
  399000    1.0095549   -2.4526174   -2.4526174   -1.2866237  0.065719941   -2.4526174    1.1659937   476190 
  400000    1.0097775   -2.4537562   -2.4537562   -1.2875055  0.071728599   -2.4537562    1.1662507   476190 
  401000     1.008182   -2.4527126   -2.4527126   -1.2883046   0.07277913   -2.4527126     1.164408   476190 
  402000    1.0094623   -2.4537377   -2.4537377   -1.2878511   0.06313232   -2.4537377    1.1658867   476190 
  403000    1.0100382   -2.4537384   -2.4537384   -1.2871866   0.06981727   -2.4537384    1.1665518   476190 
  404000    1.0089755   -2.4526083   -2.4526083   -1.2872839   0.07603289   -2.4526083    1.1653244   476190 
  405000    1.0096145   -2.4535987   -2.4535987   -1.2875362  0.066597606   -2.4535987    1.1660625   476190 
  406000    1.0078416   -2.4511243   -2.4511243   -1.2871095  0.076166377   -2.4511243    1.1640148   476190 
  407000     1.009734   -2.4536859   -2.4536859   -1.2874854  0.068937284   -2.4536859    1.1662005   476190 
  408000     1.007486   -2.4522792   -2.4522792   -1.2886751  0.067097271   -2.4522792    1.1636041   476190 
  409000    1.0077121   -2.4514689   -2.4514689   -1.2876036  0.073943893   -2.4514689    1.1638653   476190 
  410000    1.0084635   -2.4531398   -2.4531398   -1.2884067  0.067400431   -2.4531398    1.1647331   476190 
  411000    1.0093634   -2.4529866   -2.4529866   -1.2872143  0.068481041   -2.4529866    1.1657724   476190 
  412000    1.0097104   -2.4540161   -2.4540161   -1.2878429  0.064650402   -2.4540161    1.1661732   476190 
  413000     1.008659   -2.4533524   -2.4533524   -1.2883935  0.072571972   -2.4533524    1.1649588   476190 
  414000    1.0086769   -2.4541282   -2.4541282   -1.2891487  0.066714147   -2.4541282    1.1649796   476190 
  415000    1.0085186   -2.4532463   -2.4532463   -1.2884496  0.066744533   -2.4532463    1.1647967   476190 
  416000     1.009629   -2.4533384   -2.4533384   -1.2872591  0.074301269   -2.4533384    1.1660792   476190 
  417000    1.0086401   -2.4526606   -2.4526606   -1.2877236  0.071536049   -2.4526606     1.164937   476190 
  418000    1.0084194   -2.4529979   -2.4529979   -1.2883157  0.068659734   -2.4529979    1.1646822   476190 
  419000    1.0086873   -2.4549969   -2.4549969   -1.2900053  0.066462432   -2.4549969    1.1649916   476190 
  420000    1.0075963   -2.4544794   -2.4544794   -1.2907479  0.069099945   -2.4544794    1.1637315   476190 
  421000    1.0071195   -2.4539441   -2.4539441   -1.2907633  0.071542486   -2.4539441    1.1631808   476190 
  422000     1.007721   -2.4542011   -2.4542011   -1.2903255   0.06608182   -2.4542011    1.1638755   476190 
  423000    1.0077384   -2.4538532   -2.4538532   -1.2899576  0.075321013   -2.4538532    1.1638956   476190 
  424000    1.0087675   -2.4551376   -2.4551376   -1.2900534  0.067750308   -2.4551376    1.1650842   476190 
  425000    1.0094945   -2.4545327   -2.4545327   -1.2886088  0.070452545   -2.4545327    1.1659239   476190 
  426000    1.0103352   -2.4551711   -2.4551711   -1.2882763  0.068801369   -2.4551711    1.1668949   476190 
  427000    1.0102161   -2.4556544   -2.4556544   -1.2888972  0.075923592   -2.4556544    1.1667572   476190 
  428000    1.0097106   -2.4548173   -2.4548173   -1.2886438  0.070868305   -2.4548173    1.1661735   476190 
  429000    1.0115344   -2.4570935   -2.4570935   -1.2888137  0.066287277   -2.4570935    1.1682798   476190 
  430000    1.0096687    -2.455167    -2.455167   -1.2890419  0.075954033    -2.455167    1.1661251   476190 
  431000    1.0097665    -2.454675    -2.454675    -1.288437  0.083179755    -2.454675     1.166238   476190 
  432000    1.0114994   -2.4571305   -2.4571305    -1.288891  0.073035181   -2.4571305    1.1682395   476190 
  433000    1.0088779   -2.4542432   -2.4542432   -1.2890314  0.077073664   -2.4542432    1.1652118   476190 
  434000    1.0105681   -2.4561998   -2.4561998    -1.289036  0.075112925   -2.4561998    1.1671638   476190 
  435000    1.0099281   -2.4551992   -2.4551992   -1.2887746  0.068316875   -2.4551992    1.1664246   476190 
  436000    1.0101629    -2.456374    -2.456374   -1.2896782  0.062456975    -2.456374    1.1666958   476190 
  437000    1.0094063   -2.4548735   -2.4548735   -1.2890516  0.073783795   -2.4548735    1.1658219   476190 
  438000     1.009233   -2.4540664   -2.4540664   -1.2884445  0.068097648   -2.4540664    1.1656219   476190 
  439000    1.0081395   -2.4535557   -2.4535557   -1.2891968  0.071704189   -2.4535557    1.1643589   476190 
  440000    1.0098357   -2.4549877   -2.4549877   -1.2886698  0.067048176   -2.4549877    1.1663179   476190 
  441000    1.0101124   -2.4550818   -2.4550818   -1.2884443  0.070834542   -2.4550818    1.1666375   476190 
  442000    1.0085023   -2.4535706   -2.4535706   -1.2887927  0.068920507   -2.4535706    1.1647779   476190 
  443000    1.0063827   -2.4516261   -2.4516261   -1.2892962  0.070463001   -2.4516261    1.1623299   476190 
  444000    1.0085726    -2.453548    -2.453548   -1.2886889  0.069675256    -2.453548    1.1648591   476190 
  445000    1.0079007   -2.4534846   -2.4534846   -1.2894015  0.070373262   -2.4534846    1.1640831   476190 
  446000    1.0060164   -2.4506159   -2.4506159   -1.2887091  0.068828027   -2.4506159    1.1619068   476190 
  447000    1.0072476   -2.4517676   -2.4517676   -1.2884388   0.06994995   -2.4517676    1.1633288   476190 
  448000    1.0087241   -2.4535954   -2.4535954   -1.2885613  0.069030353   -2.4535954    1.1650341   476190 
  449000    1.0077255   -2.4517844   -2.4517844   -1.2879037  0.056827844   -2.4517844    1.1638807   476190 
  450000    1.0094263   -2.4527218   -2.4527218   -1.2868768  0.069836825   -2.4527218     1.165845   476190 
  451000    1.0078212   -2.4510529   -2.4510529   -1.2870617  0.061361716   -2.4510529    1.1639912   476190 
  452000    1.0085448    -2.451924    -2.451924    -1.287097  0.064151064    -2.451924     1.164827   476190 
  453000    1.0076775   -2.4520121   -2.4520121   -1.2881868  0.064343135   -2.4520121    1.1638252   476190 
  454000    1.0085257   -2.4525898   -2.4525898   -1.2877849   0.05963746   -2.4525898    1.1648049   476190 
  455000    1.0076247   -2.4513897   -2.4513897   -1.2876253  0.060991123   -2.4513897    1.1637643   476190 
  456000    1.0076301   -2.4519031   -2.4519031   -1.2881325  0.064196135   -2.4519031    1.1637706   476190 
  457000    1.0073386   -2.4518781   -2.4518781   -1.2884441  0.066218377   -2.4518781    1.1634339   476190 
  458000    1.0073407   -2.4512284   -2.4512284   -1.2877921  0.065094992   -2.4512284    1.1634363   476190 
  459000    1.0065469   -2.4499607   -2.4499607   -1.2874412   0.07584499   -2.4499607    1.1625195   476190 
  460000     1.008167   -2.4522503   -2.4522503   -1.2878596  0.072782448   -2.4522503    1.1643907   476190 
  461000    1.0084743   -2.4523239   -2.4523239   -1.2875784  0.071325069   -2.4523239    1.1647455   476190 
  462000    1.0089801   -2.4531945   -2.4531945   -1.2878648  0.057228184   -2.4531945    1.1653297   476190 
  463000    1.0098254   -2.4544728   -2.4544728   -1.2881668  0.079176767   -2.4544728     1.166306   476190 
  464000    1.0083691   -2.4533129   -2.4533129   -1.2886889   0.06990571   -2.4533129    1.1646241   476190 
  465000    1.0095812    -2.455322    -2.455322    -1.289298  0.069685746    -2.455322     1.166024   476190 
  466000     1.007809   -2.4530817   -2.4530817   -1.2891045  0.078599738   -2.4530817    1.1639772   476190 
  467000    1.0082415   -2.4546488   -2.4546488   -1.2901721  0.067014246   -2.4546488    1.1644767   476190 
  468000    1.0105263   -2.4564146   -2.4564146   -1.2892991  0.064585885   -2.4564146    1.1671156   476190 
  469000    1.0083801   -2.4544948   -2.4544948   -1.2898581  0.071504868   -2.4544948    1.1646367   476190 
  470000    1.0090367   -2.4558777   -2.4558777   -1.2904827  0.068498376   -2.4558777    1.1653951   476190 
  471000    1.0084655   -2.4550242   -2.4550242   -1.2902887  0.065959667   -2.4550242    1.1647354   476190 
  472000    1.0098219   -2.4559341   -2.4559341   -1.2896321  0.065154644   -2.4559341     1.166302   476190 
  473000    1.0091186   -2.4554753   -2.4554753   -1.2899856  0.069600553   -2.4554753    1.1654897   476190 
  474000     1.007192    -2.453752    -2.453752   -1.2904874  0.066581869    -2.453752    1.1632646   476190 
  475000    1.0072601   -2.4541275   -2.4541275   -1.2907843  0.074838256   -2.4541275    1.1633432   476190 
  476000    1.0082098   -2.4550473   -2.4550473   -1.2906072   0.06256417   -2.4550473    1.1644401   476190 
  477000     1.009619   -2.4557752   -2.4557752   -1.2897075  0.073585573   -2.4557752    1.1660677   476190 
  478000    1.0101829   -2.4565983   -2.4565983   -1.2898794  0.065162439   -2.4565983    1.1667189   476190 
  479000      1.00863    -2.454648    -2.454648   -1.2897226  0.064360028    -2.454648    1.1649254   476190 
  480000    1.0087806   -2.4541654   -2.4541654    -1.289066  0.070527183   -2.4541654    1.1650994   476190 
  481000    1.0091581   -2.4559989   -2.4559989   -1.2904635  0.065186075   -2.4559989    1.1655354   476190 
  482000    1.0065363   -2.4538702   -2.4538702    -1.291363  0.067671983   -2.4538702    1.1625072   476190 
  483000    1.0060984   -2.4537434   -2.4537434   -1.2917419  0.065835965   -2.4537434    1.1620015   476190 
  484000    1.0069848   -2.4542236   -2.4542236   -1.2911984  0.070266767   -2.4542236    1.1630252   476190 
  485000    1.0063581   -2.4540342   -2.4540342   -1.2917327  0.073230575   -2.4540342    1.1623015   476190 
  486000    1.0051977   -2.4519668   -2.4519668   -1.2910056  0.063369084   -2.4519668    1.1609612   476190 
  487000     1.007045   -2.4529461   -2.4529461   -1.2898514  0.069760736   -2.4529461    1.1630948   476190 
  488000    1.0070999   -2.4522109   -2.4522109   -1.2890527  0.067253573   -2.4522109    1.1631582   476190 
  489000    1.0054537   -2.4510159   -2.4510159    -1.289759   0.06546308   -2.4510159     1.161257   476190 
  490000    1.0071894   -2.4527774   -2.4527774   -1.2895159  0.064488654   -2.4527774    1.1632615   476190 
  491000     1.007889   -2.4531796   -2.4531796     -1.28911  0.069391678   -2.4531796    1.1640696   476190 
  492000    1.0089718    -2.453342    -2.453342   -1.2880218  0.070040627    -2.453342    1.1653202   476190 
  493000    1.0089757   -2.4529977   -2.4529977   -1.2876731  0.073562627   -2.4529977    1.1653247   476190 
  494000    1.0083771   -2.4526498   -2.4526498   -1.2880166  0.075625945   -2.4526498    1.1646333   476190 
  495000    1.0095986   -2.4539956   -2.4539956   -1.2879515  0.067340819   -2.4539956    1.1660441   476190 
  496000    1.0092802   -2.4543909   -2.4543909   -1.2887146  0.060533356   -2.4543909    1.1656763   476190 
  497000    1.0071333   -2.4519857   -2.4519857   -1.2887889  0.066902375   -2.4519857    1.1631968   476190 
  498000    1.0084329   -2.4538591   -2.4538591   -1.2891614  0.063614205   -2.4538591    1.1646977   476190 
  499000    1.0070773   -2.4530533   -2.4530533   -1.2899212  0.069547891   -2.4530533    1.1631321   476190 
  500000    1.0072815   -2.4525629   -2.4525629   -1.2891949  0.067744999   -2.4525629    1.1633679   476190 
  501000    1.0083258   -2.4543253   -2.4543253   -1.2897513  0.061251783   -2.4543253     1.164574   476190 
  502000    1.0060359   -2.4525404   -2.4525404   -1.2906111  0.070310911   -2.4525404    1.1619293   476190 
  503000    1.0060091   -2.4529285   -2.4529285   -1.2910302  0.073145523   -2.4529285    1.1618984   476190 
  504000    1.0076555   -2.4551665   -2.4551665   -1.2913666  0.068707378   -2.4551665    1.1637999   476190 
  505000    1.0060641   -2.4524376   -2.4524376   -1.2904757  0.076190516   -2.4524376    1.1619619   476190 
  506000     1.005127   -2.4521661   -2.4521661   -1.2912864  0.059803129   -2.4521661    1.1608796   476190 
  507000    1.0073199    -2.454057    -2.454057   -1.2906447  0.063189976    -2.454057    1.1634123   476190 
  508000    1.0088066   -2.4551081   -2.4551081   -1.2899787  0.066247391   -2.4551081    1.1651293   476190 
  509000    1.0083064   -2.4544461   -2.4544461   -1.2898944  0.071085659   -2.4544461    1.1645517   476190 
  510000    1.0091088   -2.4554921   -2.4554921   -1.2900137  0.070436847   -2.4554921    1.1654784   476190 
  511000    1.0083229   -2.4535797   -2.4535797   -1.2890089  0.073182193   -2.4535797    1.1645707   476190 
  512000    1.0101489   -2.4558453   -2.4558453   -1.2891657  0.063772605   -2.4558453    1.1666797   476190 
  513000    1.0089967   -2.4550873   -2.4550873   -1.2897383  0.070662216   -2.4550873    1.1653489   476190 
  514000     1.008888   -2.4548529   -2.4548529   -1.2896295  0.074556913   -2.4548529    1.1652234   476190 
  515000    1.0090911   -2.4550949   -2.4550949   -1.2896369  0.071562988   -2.4550949    1.1654579   476190 
  516000    1.0095106   -2.4550777   -2.4550777   -1.2891353  0.069878282   -2.4550777    1.1659424   476190 
  517000    1.0088458   -2.4554779   -2.4554779   -1.2903033  0.064188834   -2.4554779    1.1651746   476190 
  518000    1.0072332    -2.453653    -2.453653   -1.2903409  0.073750489    -2.453653    1.1633122   476190 
  519000    1.0071992   -2.4540708   -2.4540708   -1.2907979  0.068200491   -2.4540708    1.1632729   476190 
  520000    1.0069657   -2.4543438   -2.4543438   -1.2913406  0.072759827   -2.4543438    1.1630031   476190 
  521000    1.0092012   -2.4563857   -2.4563857   -1.2908006   0.06581367   -2.4563857     1.165585   476190 
  522000    1.0083255    -2.455506    -2.455506   -1.2909322  0.067103648    -2.455506    1.1645737   476190 
  523000    1.0074299   -2.4553625   -2.4553625   -1.2918232    0.0701618   -2.4553625    1.1635393   476190 
  524000    1.0090799    -2.456768    -2.456768    -1.291323  0.067255886    -2.456768     1.165445   476190 
  525000    1.0084652   -2.4563087   -2.4563087   -1.2915736  0.071575907   -2.4563087    1.1647351   476190 
  526000    1.0077068   -2.4557147   -2.4557147   -1.2918555  0.070861706   -2.4557147    1.1638592   476190 
  527000    1.0074392   -2.4554051   -2.4554051   -1.2918551  0.067236168   -2.4554051    1.1635501   476190 
  528000    1.0088228   -2.4578408   -2.4578408   -1.2926927  0.073900647   -2.4578408    1.1651481   476190 
  529000    1.0065413   -2.4546594   -2.4546594   -1.2921464  0.065966868   -2.4546594     1.162513   476190 
  530000    1.0073347   -2.4555435   -2.4555435   -1.2921141   0.07534109   -2.4555435    1.1634293   476190 
  531000    1.0080838   -2.4561926   -2.4561926    -1.291898  0.070264476   -2.4561926    1.1642946   476190 
  532000    1.0095302   -2.4576744   -2.4576744   -1.2917093  0.068337559   -2.4576744    1.1659651   476190 
  533000    1.0074428    -2.455532    -2.455532   -1.2919778  0.069106704    -2.455532    1.1635542   476190 
  534000     1.007418   -2.4553632   -2.4553632   -1.2918376  0.063762977   -2.4553632    1.1635256   476190 
  535000    1.0074769   -2.4553564   -2.4553564   -1.2917628  0.071914131   -2.4553564    1.1635936   476190 
  536000    1.0081554   -2.4561865   -2.4561865   -1.2918092  0.062579656   -2.4561865    1.1643773   476190 
  537000    1.0080261   -2.4566814   -2.4566814   -1.2924535  0.067998013   -2.4566814    1.1642279   476190 
  538000      1.00753   -2.4559146   -2.4559146   -1.2922597  0.071902263   -2.4559146    1.1636549   476190 
  539000    1.0082177    -2.456782    -2.456782   -1.2923328  0.063627399    -2.456782    1.1644492   476190 
  540000    1.0067055   -2.4560134   -2.4560134   -1.2933108  0.069827829   -2.4560134    1.1627026   476190 
  541000    1.0077288    -2.456548    -2.456548   -1.2926635  0.066094665    -2.456548    1.1638846   476190 
  542000    1.0070639   -2.4551447   -2.4551447   -1.2920281   0.06438223   -2.4551447    1.1631166   476190 
  543000    1.0074511   -2.4554596   -2.4554596   -1.2918958   0.07161875   -2.4554596    1.1635639   476190 
  544000    1.0083635   -2.4572606   -2.4572606    -1.292643   0.07171275   -2.4572606    1.1646176   476190 
  545000    1.0068432   -2.4551617   -2.4551617      -1.2923  0.069122821   -2.4551617    1.1628617   476190 
  546000    1.0073563    -2.454885    -2.454885   -1.2914307  0.074804004    -2.454885    1.1634543   476190 
  547000    1.0093936   -2.4566608   -2.4566608   -1.2908535  0.075668112   -2.4566608    1.1658073   476190 
  548000    1.0079004   -2.4556181   -2.4556181   -1.2915354  0.064266189   -2.4556181    1.1640827   476190 
  549000     1.008346   -2.4558851   -2.4558851   -1.2912878  0.071391423   -2.4558851    1.1645973   476190 
  550000    1.0101595   -2.4577238   -2.4577238   -1.2910319  0.061890533   -2.4577238    1.1666919   476190 
  551000    1.0081509   -2.4562292   -2.4562292   -1.2918572  0.072966619   -2.4562292     1.164372   476190 
  552000    1.0082224   -2.4553606   -2.4553606    -1.290906  0.061731298   -2.4553606    1.1644546   476190 
  553000    1.0095222   -2.4575665   -2.4575665   -1.2916107  0.071635099   -2.4575665    1.1659558   476190 
  554000    1.0070379   -2.4561546   -2.4561546    -1.293068  0.067542141   -2.4561546    1.1630866   476190 
  555000    1.0078425   -2.4579936   -2.4579936   -1.2939777  0.062572899   -2.4579936    1.1640158   476190 
  556000     1.005817   -2.4561837   -2.4561837   -1.2945072  0.055357502   -2.4561837    1.1616765   476190 
  557000    1.0066602     -2.45713     -2.45713   -1.2944797  0.055907331     -2.45713    1.1626503   476190 
  558000    1.0042158   -2.4541132   -2.4541132   -1.2942859  0.062918465   -2.4541132    1.1598272   476190 
  559000    1.0066342   -2.4574107   -2.4574107   -1.2947903   0.06666163   -2.4574107    1.1626204   476190 
  560000    1.0074699   -2.4575988   -2.4575988   -1.2940132  0.066143678   -2.4575988    1.1635856   476190 
  561000    1.0071163   -2.4568313   -2.4568313   -1.2936542  0.064087358   -2.4568313    1.1631771   476190 
  562000    1.0079728   -2.4579227   -2.4579227   -1.2937564  0.072542497   -2.4579227    1.1641663   476190 
  563000    1.0087143   -2.4586497   -2.4586497    -1.293627   0.06694584   -2.4586497    1.1650227   476190 
  564000    1.0074688      -2.4573      -2.4573   -1.2937158  0.070730931      -2.4573    1.1635842   476190 
  565000    1.0079179   -2.4574281   -2.4574281   -1.2933252  0.068094288   -2.4574281    1.1641029   476190 
  566000    1.0080921   -2.4576404   -2.4576404   -1.2933363  0.072451238   -2.4576404    1.1643041   476190 
  567000    1.0087388   -2.4578717   -2.4578717   -1.2928206  0.071457352   -2.4578717     1.165051   476190 
  568000    1.0077653   -2.4564259   -2.4564259   -1.2924992  0.069130899   -2.4564259    1.1639267   476190 
  569000    1.0069239    -2.456298    -2.456298   -1.2933431  0.073843007    -2.456298    1.1629549   476190 
  570000    1.0082399    -2.458359    -2.458359   -1.2938842  0.072849593    -2.458359    1.1644749   476190 
  571000    1.0063314   -2.4557724   -2.4557724   -1.2935018  0.069064134   -2.4557724    1.1622706   476190 
  572000    1.0080122   -2.4572522   -2.4572522   -1.2930404  0.064868968   -2.4572522    1.1642118   476190 
  573000    1.0054073   -2.4545495   -2.4545495   -1.2933462  0.075618083   -2.4545495    1.1612033   476190 
  574000     1.008232   -2.4569885   -2.4569885   -1.2925227  0.068027742   -2.4569885    1.1644657   476190 
  575000    1.0067611   -2.4563067   -2.4563067   -1.2935399  0.073799649   -2.4563067    1.1627669   476190 
  576000    1.0076346   -2.4564463   -2.4564463   -1.2926706   0.06109283   -2.4564463    1.1637757   476190 
  577000    1.0069442   -2.4561857   -2.4561857   -1.2932073  0.064251141   -2.4561857    1.1629783   476190 
  578000    1.0074984   -2.4562851   -2.4562851   -1.2926666  0.066346884   -2.4562851    1.1636184   476190 
  579000    1.0081988   -2.4562252   -2.4562252   -1.2917978  0.071657909   -2.4562252    1.1644273   476190 
  580000    1.0081135   -2.4565354   -2.4565354   -1.2922066  0.072614517   -2.4565354    1.1643289   476190 
  581000     1.008549   -2.4557769   -2.4557769   -1.2909451  0.064627459   -2.4557769    1.1648318   476190 
  582000    1.0075836   -2.4551038   -2.4551038    -1.291387  0.072162678   -2.4551038    1.1637168   476190 
  583000    1.0085677   -2.4558475   -2.4558475    -1.290994  0.066065018   -2.4558475    1.1648535   476190 
  584000    1.0077336   -2.4535618   -2.4535618   -1.2896716  0.068270182   -2.4535618    1.1638901   476190 
  585000    1.0074153    -2.454573    -2.454573   -1.2910506  0.063951181    -2.454573    1.1635224   476190 
  586000    1.0075329   -2.4541247   -2.4541247   -1.2904664  0.066962115   -2.4541247    1.1636583   476190 
  587000     1.007309   -2.4541653   -2.4541653   -1.2907656  0.069501884   -2.4541653    1.1633997   476190 
  588000    1.0053554   -2.4516972   -2.4516972   -1.2905538  0.068595404   -2.4516972    1.1611434   476190 
  589000    1.0078618   -2.4541562   -2.4541562    -1.290118  0.069129011   -2.4541562    1.1640381   476190 
  590000    1.0075557   -2.4533929   -2.4533929   -1.2897084  0.060279526   -2.4533929    1.1636846   476190 
  591000    1.0074588   -2.4534787   -2.4534787    -1.289906  0.066707238   -2.4534787    1.1635727   476190 
  592000    1.0068839   -2.4525133   -2.4525133   -1.2896045  0.057435371   -2.4525133    1.1629088   476190 
  593000    1.0068946   -2.4523714   -2.4523714   -1.2894503  0.064738757   -2.4523714    1.1629211   476190 
  594000    1.0061197    -2.452385    -2.452385   -1.2903589  0.063998142    -2.452385    1.1620261   476190 
  595000    1.0054521   -2.4523007   -2.4523007   -1.2910457  0.075035064   -2.4523007     1.161255   476190 
  596000    1.0066389   -2.4524148   -2.4524148    -1.289789  0.066487761   -2.4524148    1.1626258   476190 
  597000    1.0062244   -2.4521368   -2.4521368   -1.2899897  0.064329609   -2.4521368    1.1621471   476190 
  598000    1.0090585   -2.4556042   -2.4556042   -1.2901839  0.058042991   -2.4556042    1.1654203   476190 
  599000    1.0068488   -2.4539555   -2.4539555   -1.2910873  0.059649868   -2.4539555    1.1628682   476190 
  600000    1.0084688   -2.4543088   -2.4543088   -1.2895695  0.059874787   -2.4543088    1.1647392   476190 
  601000    1.0081805   -2.4538386   -2.4538386   -1.2894323  0.070438894   -2.4538386    1.1644063   476190 
  602000    1.0074933   -2.4532939   -2.4532939   -1.2896813  0.071994711   -2.4532939    1.1636126   476190 
  603000    1.0075672   -2.4535386   -2.4535386   -1.2898407  0.068663977   -2.4535386    1.1636979   476190 
  604000    1.0078102   -2.4526273   -2.4526273   -1.2886487  0.073902613   -2.4526273    1.1639786   476190 
  605000    1.0075941   -2.4527081   -2.4527081   -1.2889791  0.069608283   -2.4527081     1.163729   476190 
  606000    1.0084792   -2.4552578   -2.4552578   -1.2905065  0.063645178   -2.4552578    1.1647513   476190 
  607000     1.007756   -2.4543586   -2.4543586   -1.2904426  0.070829117   -2.4543586     1.163916   476190 
  608000    1.0086195   -2.4554764   -2.4554764   -1.2905632   0.06434323   -2.4554764    1.1649133   476190 
  609000    1.0080791   -2.4552223   -2.4552223   -1.2909331  0.068986874   -2.4552223    1.1642892   476190 
  610000    1.0087788   -2.4566042   -2.4566042    -1.291507  0.066930374   -2.4566042    1.1650973   476190 
  611000    1.0090482   -2.4563617   -2.4563617   -1.2909533  0.067893106   -2.4563617    1.1654084   476190 
  612000    1.0088055   -2.4569722   -2.4569722   -1.2918441  0.069442969   -2.4569722    1.1651281   476190 
  613000    1.0087386   -2.4566631   -2.4566631   -1.2916123  0.073746225   -2.4566631    1.1650508   476190 
  614000    1.0080558   -2.4564388   -2.4564388   -1.2921766  0.065964131   -2.4564388    1.1642622   476190 
  615000    1.0048097   -2.4537253   -2.4537253   -1.2932121  0.065112666   -2.4537253    1.1605132   476190 
  616000    1.0068196   -2.4559869   -2.4559869   -1.2931524  0.061180758   -2.4559869    1.1628345   476190 
  617000    1.0077727   -2.4571848   -2.4571848   -1.2932496  0.066879842   -2.4571848    1.1639352   476190 
  618000    1.0063543    -2.454503    -2.454503   -1.2922059  0.071560891    -2.454503    1.1622971   476190 
  619000     1.006729   -2.4547822   -2.4547822   -1.2920524  0.063152037   -2.4547822    1.1627299   476190 
  620000    1.0077484   -2.4561475   -2.4561475   -1.2922403  0.069294594   -2.4561475    1.1639071   476190 
  621000    1.0055022   -2.4555627   -2.4555627   -1.2942497  0.068867064   -2.4555627     1.161313   476190 
  622000    1.0050336   -2.4550722   -2.4550722   -1.2943005  0.074835376   -2.4550722    1.1607717   476190 
  623000    1.0071769    -2.457407    -2.457407   -1.2941599  0.060461093    -2.457407    1.1632471   476190 
  624000    1.0055819   -2.4543303   -2.4543303   -1.2929254   0.06700665   -2.4543303     1.161405   476190 
  625000    1.0082958   -2.4566094   -2.4566094     -1.29207  0.064310196   -2.4566094    1.1645394   476190 
  626000    1.0063209   -2.4554728   -2.4554728   -1.2932143  0.066638102   -2.4554728    1.1622585   476190 
  627000    1.0081334   -2.4564469   -2.4564469   -1.2920951  0.065860833   -2.4564469    1.1643518   476190 
  628000     1.007529   -2.4562906   -2.4562906   -1.2926368  0.065645116   -2.4562906    1.1636538   476190 
  629000    1.0080258   -2.4579092   -2.4579092   -1.2936817  0.077381434   -2.4579092    1.1642276   476190 
  630000    1.0078431   -2.4580218   -2.4580218   -1.2940053  0.066870401   -2.4580218    1.1640165   476190 
  631000    1.0078205   -2.4586179   -2.4586179   -1.2946275  0.068369422   -2.4586179    1.1639904   476190 
  632000    1.0086318   -2.4584009   -2.4584009   -1.2934734  0.067765261   -2.4584009    1.1649275   476190 
  633000    1.0078014   -2.4577834   -2.4577834    -1.293815  0.066133033   -2.4577834    1.1639684   476190 
  634000    1.0071551    -2.457364    -2.457364    -1.294142   0.06897178    -2.457364     1.163222   476190 
  635000    1.0074821   -2.4571252   -2.4571252   -1.2935256  0.074135165   -2.4571252    1.1635997   476190 
  636000    1.0077018   -2.4570969   -2.4570969   -1.2932435  0.064082887   -2.4570969    1.1638534   476190 
  637000    1.0087342    -2.458746    -2.458746   -1.2937002  0.063451936    -2.458746    1.1650458   476190 
  638000    1.0072103   -2.4580914   -2.4580914   -1.2948057  0.068738927   -2.4580914    1.1632857   476190 
  639000    1.0077232   -2.4582833   -2.4582833   -1.2944052   0.07122723   -2.4582833    1.1638781   476190 
  640000     1.007054   -2.4574692   -2.4574692   -1.2943641  0.067017925   -2.4574692    1.1631051   476190 
  641000      1.00812   -2.4591004   -2.4591004    -1.294764  0.065199919   -2.4591004    1.1643364   476190 
  642000    1.0086248   -2.4589246   -2.4589246   -1.2940051   0.06597996   -2.4589246    1.1649194   476190 
  643000     1.007998   -2.4574548   -2.4574548   -1.2932593   0.07285788   -2.4574548    1.1641955   476190 
  644000    1.0088034   -2.4588488   -2.4588488   -1.2937231  0.061412106   -2.4588488    1.1651257   476190 
  645000    1.0083617   -2.4577177   -2.4577177   -1.2931022  0.073874621   -2.4577177    1.1646155   476190 
  646000    1.0075995    -2.455977    -2.455977   -1.2922418  0.069679851    -2.455977    1.1637352   476190 
  647000    1.0089344   -2.4587229   -2.4587229   -1.2934459  0.065169841   -2.4587229     1.165277   476190 
  648000    1.0075971   -2.4581921   -2.4581921   -1.2944597  0.068476142   -2.4581921    1.1637324   476190 
[...]
 9832000    1.0061785   -2.4701367   -2.4701367   -1.3080426  0.072753432   -2.4701367    1.1620941   476190 
 9833000    1.0063627   -2.4699305   -2.4699305   -1.3076237   0.06875071   -2.4699305    1.1623068   476190 
 9834000    1.0070521   -2.4708984   -2.4708984   -1.3077954  0.068503105   -2.4708984     1.163103   476190 
 9835000    1.0062663   -2.4710018   -2.4710018   -1.3088064  0.069089227   -2.4710018    1.1621954   476190 
 9836000    1.0055721   -2.4700089   -2.4700089   -1.3086152  0.073940032   -2.4700089    1.1613937   476190 
 9837000    1.0059243   -2.4708187   -2.4708187   -1.3090183   0.06638706   -2.4708187    1.1618004   476190 
 9838000    1.0065463   -2.4713955   -2.4713955   -1.3088766  0.079243561   -2.4713955    1.1625188   476190 
 9839000    1.0068161   -2.4711818   -2.4711818   -1.3083514  0.066702182   -2.4711818    1.1628304   476190 
 9840000    1.0069436   -2.4713544   -2.4713544   -1.3083768  0.063582827   -2.4713544    1.1629777   476190 
 9841000    1.0065789   -2.4706642   -2.4706642   -1.3081077  0.065190171   -2.4706642    1.1625565   476190 
 9842000    1.0072281   -2.4719054   -2.4719054   -1.3085992  0.071554914   -2.4719054    1.1633062   476190 
 9843000    1.0077824   -2.4716899   -2.4716899   -1.3077435  0.068973701   -2.4716899    1.1639464   476190 
 9844000    1.0080516   -2.4716055   -2.4716055    -1.307348  0.061699375   -2.4716055    1.1642574   476190 
 9845000    1.0087969    -2.472866    -2.472866   -1.3077479  0.071827559    -2.472866    1.1651181   476190 
 9846000    1.0088925   -2.4729724   -2.4729724   -1.3077438  0.073146897   -2.4729724    1.1652286   476190 
 9847000     1.008997   -2.4738263   -2.4738263   -1.3084771  0.072412388   -2.4738263    1.1653493   476190 
 9848000    1.0073883   -2.4711496   -2.4711496   -1.3076583  0.074111619   -2.4711496    1.1634913   476190 
 9849000    1.0074037   -2.4723589   -2.4723589   -1.3088498  0.069165975   -2.4723589    1.1635091   476190 
 9850000    1.0083343    -2.473305    -2.473305   -1.3087212   0.06789231    -2.473305    1.1645839   476190 
 9851000    1.0072624   -2.4721905   -2.4721905   -1.3088446   0.07185707   -2.4721905    1.1633459   476190 
 9852000    1.0038501   -2.4694369   -2.4694369   -1.3100321  0.063917877   -2.4694369    1.1594048   476190 
 9853000    1.0046455   -2.4694016   -2.4694016   -1.3090782  0.064305716   -2.4694016    1.1603234   476190 
 9854000    1.0053383    -2.471049    -2.471049   -1.3099254  0.068031749    -2.471049    1.1611236   476190 
 9855000    1.0062506   -2.4708792   -2.4708792    -1.308702  0.065459422   -2.4708792    1.1621773   476190 
 9856000    1.0067647   -2.4719569   -2.4719569   -1.3091859  0.065698691   -2.4719569     1.162771   476190 
 9857000     1.006037   -2.4713673   -2.4713673   -1.3094367  0.072431676   -2.4713673    1.1619306   476190 
 9858000    1.0047664   -2.4692327   -2.4692327   -1.3087696  0.066844785   -2.4692327    1.1604631   476190 
 9859000    1.0066752   -2.4715415   -2.4715415   -1.3088738  0.068777756   -2.4715415    1.1626676   476190 
 9860000     1.005985   -2.4711162   -2.4711162   -1.3092457  0.070259645   -2.4711162    1.1618705   476190 
 9861000    1.0082568   -2.4730901   -2.4730901   -1.3085958  0.077369908   -2.4730901    1.1644944   476190 
 9862000    1.0071496   -2.4719485   -2.4719485   -1.3087329    0.0710602   -2.4719485    1.1632156   476190 
 9863000    1.0060545   -2.4712737   -2.4712737    -1.309323  0.073019398   -2.4712737    1.1619507   476190 
 9864000     1.007304   -2.4729301   -2.4729301   -1.3095362  0.069448793   -2.4729301    1.1633939   476190 
 9865000    1.0064081   -2.4725942   -2.4725942   -1.3102351  0.066599271   -2.4725942    1.1623591   476190 
 9866000    1.0056081   -2.4699376   -2.4699376   -1.3085024  0.071178555   -2.4699376    1.1614353   476190 
 9867000    1.0058709    -2.470372    -2.470372   -1.3086332  0.071235235    -2.470372    1.1617388   476190 
 9868000    1.0048744   -2.4699469   -2.4699469   -1.3093591  0.064056829   -2.4699469    1.1605878   476190 
 9869000    1.0062893   -2.4705495   -2.4705495   -1.3083274  0.069800336   -2.4705495     1.162222   476190 
 9870000    1.0070076   -2.4724973   -2.4724973   -1.3094457   0.07212413   -2.4724973    1.1630516   476190 
 9871000    1.0062017   -2.4719446   -2.4719446   -1.3098238  0.068685701   -2.4719446    1.1621208   476190 
 9872000    1.0048617   -2.4708642   -2.4708642    -1.310291  0.067778154   -2.4708642    1.1605732   476190 
 9873000    1.0033522    -2.469654    -2.469654   -1.3108242  0.066996015    -2.469654    1.1588298   476190 
 9874000    1.0054465   -2.4713725   -2.4713725    -1.310124  0.068196159   -2.4713725    1.1612486   476190 
 9875000    1.0035859   -2.4697681   -2.4697681   -1.3106684  0.065899703   -2.4697681    1.1590996   476190 
 9876000    1.0048961   -2.4707262   -2.4707262   -1.3101132  0.066711052   -2.4707262    1.1606129   476190 
 9877000    1.0048582   -2.4709912   -2.4709912   -1.3104221  0.067419041   -2.4709912    1.1605691   476190 
 9878000    1.0041006   -2.4700613   -2.4700613   -1.3103672  0.063892385   -2.4700613    1.1596941   476190 
 9879000    1.0039503   -2.4705765   -2.4705765    -1.311056  0.061484224   -2.4705765    1.1595206   476190 
 9880000    1.0044337   -2.4712583   -2.4712583   -1.3111794  0.061957635   -2.4712583    1.1600788   476190 
 9881000    1.0065696   -2.4718045   -2.4718045   -1.3092587  0.067483484   -2.4718045    1.1625458   476190 
 9882000    1.0066849   -2.4713839   -2.4713839   -1.3087051  0.075416191   -2.4713839    1.1626788   476190 
 9883000    1.0063163   -2.4715872   -2.4715872    -1.309334   0.07280081   -2.4715872    1.1622532   476190 
 9884000    1.0074079   -2.4728305   -2.4728305   -1.3093166  0.069837578   -2.4728305    1.1635139   476190 
 9885000    1.0071861   -2.4731801   -2.4731801   -1.3099223  0.073579876   -2.4731801    1.1632578   476190 
 9886000    1.0074387   -2.4738703   -2.4738703   -1.3103208  0.072711389   -2.4738703    1.1635495   476190 
 9887000    1.0051337   -2.4721886   -2.4721886   -1.3113013  0.066218672   -2.4721886    1.1608873   476190 
 9888000    1.0060107   -2.4727016   -2.4727016   -1.3108014   0.06864143   -2.4727016    1.1619002   476190 
 9889000    1.0064215   -2.4733381   -2.4733381   -1.3109634  0.066867107   -2.4733381    1.1623747   476190 
 9890000    1.0062218   -2.4714829   -2.4714829   -1.3093388  0.061525021   -2.4714829     1.162144   476190 
 9891000    1.0049062   -2.4708264   -2.4708264   -1.3102018  0.069244695   -2.4708264    1.1606246   476190 
 9892000    1.0057139    -2.472348    -2.472348   -1.3107906  0.069204565    -2.472348    1.1615574   476190 
 9893000    1.0064093    -2.471935    -2.471935   -1.3095745  0.074331183    -2.471935    1.1623605   476190 
 9894000    1.0042781   -2.4702084   -2.4702084   -1.3103093  0.072614311   -2.4702084    1.1598991   476190 
 9895000     1.006409   -2.4711486   -2.4711486   -1.3087883  0.070277896   -2.4711486    1.1623603   476190 
 9896000    1.0069362    -2.472004    -2.472004   -1.3090349  0.073479719    -2.472004    1.1629691   476190 
 9897000      1.00522   -2.4701608   -2.4701608   -1.3091738  0.069701711   -2.4701608     1.160987   476190 
 9898000    1.0043427   -2.4695996   -2.4695996   -1.3096259  0.071858009   -2.4695996    1.1599737   476190 
 9899000    1.0043091   -2.4690348   -2.4690348   -1.3090998  0.069922967   -2.4690348    1.1599349   476190 
 9900000      1.00553   -2.4690173   -2.4690173   -1.3076722  0.069874191   -2.4690173     1.161345   476190 
 9901000    1.0056529   -2.4693643   -2.4693643   -1.3078774  0.068743839   -2.4693643    1.1614869   476190 
 9902000    1.0058458   -2.4702719   -2.4702719   -1.3085622  0.057610715   -2.4702719    1.1617097   476190 
 9903000    1.0050658   -2.4695572   -2.4695572   -1.3087483  0.064683204   -2.4695572    1.1608089   476190 
 9904000    1.0065715   -2.4704187   -2.4704187   -1.3078708   0.06630222   -2.4704187    1.1625479   476190 
 9905000    1.0052082   -2.4691691   -2.4691691   -1.3081958   0.06948228   -2.4691691    1.1609733   476190 
 9906000    1.0048118   -2.4697099   -2.4697099   -1.3091944  0.069717916   -2.4697099    1.1605156   476190 
 9907000    1.0072748   -2.4707376   -2.4707376   -1.3073774  0.062656343   -2.4707376    1.1633602   476190 
 9908000     1.006406   -2.4697463   -2.4697463   -1.3073895  0.074467388   -2.4697463    1.1623568   476190 
 9909000    1.0063441   -2.4693084   -2.4693084   -1.3070231  0.063821861   -2.4693084    1.1622853   476190 
 9910000    1.0054748   -2.4699813   -2.4699813   -1.3086999   0.06635035   -2.4699813    1.1612813   476190 
 9911000    1.0046888   -2.4682636   -2.4682636   -1.3078901  0.067785917   -2.4682636    1.1603735   476190 
 9912000    1.0061175   -2.4716128   -2.4716128   -1.3095893  0.063238148   -2.4716128    1.1620235   476190 
 9913000    1.0052913     -2.47083     -2.47083   -1.3097606  0.063925493     -2.47083    1.1610694   476190 
 9914000    1.0057886   -2.4711405   -2.4711405   -1.3094969  0.072571142   -2.4711405    1.1616436   476190 
 9915000     1.006457   -2.4711442   -2.4711442   -1.3087285  0.070373451   -2.4711442    1.1624157   476190 
 9916000    1.0074028   -2.4715803   -2.4715803   -1.3080722  0.071801035   -2.4715803    1.1635081   476190 
 9917000    1.0067159    -2.470354    -2.470354   -1.3076393  0.073094502    -2.470354    1.1627147   476190 
 9918000    1.0050485    -2.468719    -2.468719   -1.3079301  0.074576123    -2.468719     1.160789   476190 
 9919000    1.0043302   -2.4681472   -2.4681472   -1.3081879  0.076769201   -2.4681472    1.1599593   476190 
 9920000    1.0070487    -2.472196    -2.472196   -1.3090969  0.064237239    -2.472196    1.1630991   476190 
 9921000    1.0062633   -2.4715264   -2.4715264   -1.3093344  0.067541429   -2.4715264     1.162192   476190 
 9922000    1.0060634   -2.4708082   -2.4708082   -1.3088471  0.070019989   -2.4708082    1.1619611   476190 
 9923000    1.0055343   -2.4701458   -2.4701458   -1.3087958  0.077944124   -2.4701458      1.16135   476190 
 9924000    1.0062481   -2.4703157   -2.4703157   -1.3081413  0.068943975   -2.4703157    1.1621744   476190 
 9925000    1.0065088   -2.4717978   -2.4717978   -1.3093223  0.074013896   -2.4717978    1.1624755   476190 
 9926000    1.0053073   -2.4700034   -2.4700034   -1.3089156  0.068632523   -2.4700034    1.1610878   476190 
 9927000    1.0066173   -2.4730322   -2.4730322   -1.3104314  0.069011292   -2.4730322    1.1626008   476190 
 9928000    1.0060792   -2.4717628   -2.4717628   -1.3097835  0.071284623   -2.4717628    1.1619794   476190 
 9929000    1.0048208   -2.4703168   -2.4703168   -1.3097908  0.072484969   -2.4703168     1.160526   476190 
 9930000    1.0066076   -2.4718392   -2.4718392   -1.3092496  0.070547642   -2.4718392    1.1625896   476190 
 9931000    1.0034292   -2.4689507   -2.4689507    -1.310032  0.064868111   -2.4689507    1.1589187   476190 
 9932000    1.0048237   -2.4709284   -2.4709284   -1.3103991   0.06213564   -2.4709284    1.1605293   476190 
 9933000    1.0070488   -2.4728436   -2.4728436   -1.3097444   0.06924857   -2.4728436    1.1630992   476190 
 9934000    1.0056805   -2.4710571   -2.4710571   -1.3095382  0.062302471   -2.4710571    1.1615189   476190 
 9935000    1.0061678   -2.4714605   -2.4714605   -1.3093789   0.06832059   -2.4714605    1.1620816   476190 
 9936000    1.0048871   -2.4707252   -2.4707252   -1.3101226   0.07066472   -2.4707252    1.1606026   476190 
 9937000    1.0061371   -2.4722126   -2.4722126   -1.3101664  0.066824065   -2.4722126    1.1620462   476190 
 9938000    1.0066292   -2.4737211   -2.4737211   -1.3111066  0.061357035   -2.4737211    1.1626146   476190 
 9939000    1.0050917   -2.4707889   -2.4707889     -1.30995  0.070820217   -2.4707889    1.1608388   476190 
 9940000    1.0048063   -2.4688209   -2.4688209   -1.3083117  0.068655072   -2.4688209    1.1605092   476190 
 9941000    1.0068182    -2.470962    -2.470962   -1.3081292    0.0646622    -2.470962    1.1628329   476190 
 9942000    1.0058373   -2.4709228   -2.4709228   -1.3092229  0.069370973   -2.4709228    1.1616999   476190 
 9943000    1.0059237   -2.4715315   -2.4715315   -1.3097318  0.067962987   -2.4715315    1.1617997   476190 
 9944000    1.0054559   -2.4717283   -2.4717283   -1.3104689  0.070360297   -2.4717283    1.1612595   476190 
 9945000    1.0050403   -2.4707807   -2.4707807   -1.3100013  0.070237719   -2.4707807    1.1607795   476190 
 9946000    1.0029135   -2.4687035   -2.4687035   -1.3103804  0.070139232   -2.4687035    1.1583231   476190 
 9947000    1.0037802   -2.4693191   -2.4693191   -1.3099951  0.060543733   -2.4693191     1.159324   476190 
 9948000    1.0047024   -2.4704182   -2.4704182    -1.310029  0.066583725   -2.4704182    1.1603892   476190 
 9949000    1.0043206   -2.4696357   -2.4696357   -1.3096875  0.074634883   -2.4696357    1.1599482   476190 
 9950000    1.0051699   -2.4705621   -2.4705621    -1.309633  0.065830608   -2.4705621    1.1609292   476190 
 9951000    1.0052685   -2.4714081   -2.4714081    -1.310365  0.072607938   -2.4714081     1.161043   476190 
 9952000      1.00595   -2.4710818   -2.4710818   -1.3092517  0.066279758   -2.4710818    1.1618301   476190 
 9953000    1.0052433   -2.4697193   -2.4697193   -1.3087053  0.067865776   -2.4697193     1.161014   476190 
 9954000    1.0052321   -2.4700902   -2.4700902   -1.3090892  0.068641569   -2.4700902     1.161001   476190 
 9955000    1.0054987   -2.4705484   -2.4705484   -1.3092396  0.067995508   -2.4705484    1.1613088   476190 
 9956000    1.0063716   -2.4701624   -2.4701624   -1.3078453  0.073191728   -2.4701624    1.1623171   476190 
 9957000    1.0067835   -2.4706645   -2.4706645   -1.3078717  0.072486359   -2.4706645    1.1627928   476190 
 9958000    1.0068117   -2.4728009   -2.4728009   -1.3099755  0.070623945   -2.4728009    1.1628254   476190 
 9959000    1.0059178   -2.4721796   -2.4721796   -1.3103867  0.070722985   -2.4721796    1.1617929   476190 
 9960000    1.0051924   -2.4712828   -2.4712828   -1.3103277  0.061339426   -2.4712828    1.1609552   476190 
 9961000    1.0065176   -2.4724759   -2.4724759   -1.3099903  0.072518359   -2.4724759    1.1624857   476190 
 9962000    1.0046868   -2.4701694   -2.4701694   -1.3097982  0.064546902   -2.4701694    1.1603712   476190 
 9963000    1.0052553   -2.4706707   -2.4706707   -1.3096429  0.064817174   -2.4706707    1.1610278   476190 
 9964000    1.0043862   -2.4694669   -2.4694669   -1.3094429  0.071652326   -2.4694669    1.1600239   476190 
 9965000    1.0052821   -2.4714713   -2.4714713   -1.3104127  0.059864111   -2.4714713    1.1610587   476190 
 9966000    1.0054913   -2.4722338   -2.4722338   -1.3109335  0.064501046   -2.4722338    1.1613003   476190 
 9967000    1.0044434   -2.4710861   -2.4710861   -1.3109961  0.062195691   -2.4710861    1.1600901   476190 
 9968000    1.0060998   -2.4727106   -2.4727106   -1.3107074  0.066587363   -2.4727106    1.1620032   476190 
 9969000    1.0039544   -2.4703456   -2.4703456   -1.3108204  0.074674368   -2.4703456    1.1595252   476190 
 9970000    1.0057767   -2.4712824   -2.4712824   -1.3096524  0.064966748   -2.4712824      1.16163   476190 
 9971000    1.0065569   -2.4738784   -2.4738784   -1.3113473  0.061067828   -2.4738784    1.1625311   476190 
 9972000    1.0056176   -2.4708831   -2.4708831   -1.3094368  0.068526285   -2.4708831    1.1614463   476190 
 9973000    1.0053584   -2.4712006   -2.4712006   -1.3100539  0.064569873   -2.4712006    1.1611468   476190 
 9974000    1.0059217    -2.471937    -2.471937   -1.3101396  0.067073307    -2.471937    1.1617974   476190 
 9975000    1.0064928   -2.4736633   -2.4736633   -1.3112063  0.059319374   -2.4736633     1.162457   476190 
 9976000    1.0052717   -2.4713074   -2.4713074   -1.3102606  0.065041894   -2.4713074    1.1610467   476190 
 9977000    1.0049631    -2.472875    -2.472875   -1.3121847   0.06180121    -2.472875    1.1606903   476190 
 9978000    1.0043987   -2.4724963   -2.4724963   -1.3124579  0.064820303   -2.4724963    1.1600384   476190 
 9979000    1.0041049   -2.4722475   -2.4722475   -1.3125484  0.059325025   -2.4722475    1.1596991   476190 
 9980000    1.0025296   -2.4689653   -2.4689653   -1.3110857   0.06311555   -2.4689653    1.1578796   476190 
 9981000    1.0039358   -2.4717914   -2.4717914   -1.3122876  0.061111872   -2.4717914    1.1595038   476190 
 9982000    1.0034939    -2.471452    -2.471452   -1.3124586  0.061170881    -2.471452    1.1589934   476190 
 9983000    1.0032424   -2.4711339   -2.4711339   -1.3124309  0.065019415   -2.4711339     1.158703   476190 
 9984000    1.0023797   -2.4701855   -2.4701855   -1.3124789  0.064650577   -2.4701855    1.1577066   476190 
 9985000     1.005894   -2.4734722   -2.4734722   -1.3117068  0.067400688   -2.4734722    1.1617654   476190 
 9986000    1.0042681   -2.4714161   -2.4714161   -1.3115285  0.072598733   -2.4714161    1.1598876   476190 
 9987000    1.0046154   -2.4711373   -2.4711373   -1.3108486  0.063196295   -2.4711373    1.1602887   476190 
 9988000    1.0044748   -2.4715219   -2.4715219   -1.3113956  0.075504166   -2.4715219    1.1601263   476190 
 9989000    1.0048892   -2.4721756   -2.4721756   -1.3115707  0.069183805   -2.4721756    1.1606049   476190 
 9990000    1.0065202   -2.4736468   -2.4736468   -1.3111581  0.069676362   -2.4736468    1.1624887   476190 
 9991000    1.0055953   -2.4717393   -2.4717393   -1.3103188  0.069997141   -2.4717393    1.1614205   476190 
 9992000    1.0075994   -2.4742246   -2.4742246   -1.3104895  0.066807071   -2.4742246    1.1637351   476190 
 9993000    1.0051813   -2.4728453   -2.4728453   -1.3119031    0.0698269   -2.4728453    1.1609423   476190 
 9994000    1.0065743   -2.4741073   -2.4741073   -1.3115561  0.063596727   -2.4741073    1.1625512   476190 
 9995000    1.0061698   -2.4734261   -2.4734261   -1.3113422  0.069520025   -2.4734261    1.1620839   476190 
 9996000      1.00616   -2.4731548   -2.4731548   -1.3110821  0.071487759   -2.4731548    1.1620727   476190 
 9997000    1.0054748   -2.4733749   -2.4733749   -1.3120936   0.06263345   -2.4733749    1.1612813   476190 
 9998000    1.0050891   -2.4733205   -2.4733205   -1.3124847  0.078362468   -2.4733205    1.1608358   476190 
 9999000    1.0051902   -2.4727107   -2.4727107   -1.3117581  0.068499449   -2.4727107    1.1609526   476190 
10000000    1.0054979   -2.4726432   -2.4726432   -1.3113352  0.068808208   -2.4726432     1.161308   476190 
Loop time of 15349.4 on 288 procs for 10000000 steps with 476190 atoms

Performance: 281444.555 tau/day, 651.492 timesteps/s
95.1% CPU use with 288 MPI tasks x 1 OpenMP threads

MPI task timing breakdown:
Section |  min time  |  avg time  |  max time  |%varavg|  %CPU | %total
-----------------------------------------------------------------------
Pair    | 1451.5     | 3677.2     | 5020.4     |1299.8 |  95.9 | 23.96
Bond    | 6.2959     | 6.7601     | 7.075      |   5.1 | 100.0 |  0.04
Neigh   | 1412       | 3083.7     | 3807.8     | 906.1 |  99.0 | 20.09
Comm    | 3085.5     | 4895.9     | 8168.1     |1523.6 |  94.1 | 31.90
Output  | 1287.2     | 1287.9     | 1296.9     |   2.3 |  90.7 |  8.39
Modify  | 1897.9     | 2223.1     | 2999.5     | 496.8 |  94.3 | 14.48
Other   |            | 174.8      |            |       |       |  1.14

Nlocal:        1653.44 ave        2123 max        1317 min
Histogram: 2 28 53 64 57 28 30 18 4 4
Nghost:        4339.30 ave        7069 max        2063 min
Histogram: 35 10 16 44 61 55 28 14 18 7
Neighs:        35275.0 ave       51586 max        9186 min
Histogram: 15 6 12 10 26 46 57 61 25 30

Total # of neighbors = 10159187
Ave neighs/atom = 21.334314
Ave special neighs/atom = 0.0000000
Neighbor list builds = 1000000
Dangerous builds = 990000

Total wall time: 4:15:55
