#LAMMPS data file for polygons: cubes, moment of inertia I = m edge^2/ 6
1 atoms
1 bodies
2 atom types
-1 1 xlo xhi
-1 1 ylo yhi
-1 1 zlo zhi

Atoms

1 1 1 1 0 0 0

Bodies

1 3 10
1 0 0
1 1 1 0 0 0
0 0 0
1
