LAMMPS (24 Dec 2020)
OMP_NUM_THREADS environment is not set. Defaulting to 1 thread. (src/comm.cpp:94)
  using 1 OpenMP thread(s) per MPI task
Created orthogonal box = (0.0000000 0.0000000 0.0000000) to (80.000000 80.000000 160.00000)
  6 by 4 by 8 MPI processor grid
Lattice spacing in x,y,z = 1.1485556 1.1485556 1.1485556
Created 421400 atoms
  create_atoms CPU = 0.151 seconds
Lattice spacing in x,y,z = 2.8114422 2.8114422 2.8114422
Created 17661 atoms
  create_atoms CPU = 0.004 seconds
439061 atoms in group solvent
System init for delete_atoms ...
Neighbor list info ...
  update every 1 steps, delay 10 steps, check yes
  max neighbors/atom: 2000, page size: 100000
  master list distance cutoff = 2.9
  ghost atom cutoff = 2.9
  binsize = 1.45, bins = 56 56 111
  2 neighbor lists, perpetual/occasional/extra = 1 1 0
  (1) command delete_atoms, occasional
      attributes: full, newton on
      pair build: full/bin
      stencil: full/bin/3d
      bin: standard
  (2) pair lj/smooth/linear, perpetual
      attributes: half, newton on
      pair build: half/bin/newton
      stencil: half/bin/3d/newton
      bin: standard
WARNING: Ignoring 'compress yes' for molecular system (src/delete_atoms.cpp:125)
Deleted 0 atoms, new total = 439061
Balancing ...
Neighbor list info ...
  update every 1 steps, delay 10 steps, check yes
  max neighbors/atom: 2000, page size: 100000
  master list distance cutoff = 2.9
  ghost atom cutoff = 2.9
  binsize = 1.45, bins = 56 56 111
  1 neighbor lists, perpetual/occasional/extra = 1 0 0
  (1) pair lj/smooth/linear, perpetual
      attributes: half, newton on
      pair build: half/bin/newton
      stencil: half/bin/3d/newton
      bin: standard
 rebalancing time: 0.008 seconds
  iteration count = 5
  initial/final maximal load/proc = 3888.0000 2808.0000
  initial/final imbalance factor  = 1.7002102 1.2279296
  x cuts: 0.0000000 0.16666667 0.33333333 0.50000000 0.66666667 0.83333333 1.0000000
  y cuts: 0.0000000 0.25000000 0.50000000 0.75000000 1.0000000
  z cuts: 0.0000000 0.089843750 0.17578125 0.25390625 0.33593750 0.41406250 0.50390625 0.58203125 1.0000000
dynamic group thermo defined
New timer settings: style=full  mode=nosync  timeout=off
Setting up Verlet run ...
  Unit style    : lj
  Current step  : 0
  Time step     : 0.005
Per MPI rank memory allocation (min/avg/max) = 9.982 | 10.06 | 10.45 Mbytes
Step Temp E_pair E_vdwl TotEng Press PotEng KinEng Atoms 
       0            1  -0.77633128  -0.77633128   0.72366531    4.2163414  -0.77633128    1.4999966   439061 
    1000    2.0009341   -2.7504815   -2.7504815   0.25091292      2.20526   -2.7504815    3.0013944   439061 
    2000     1.881318   -2.7540896   -2.7540896  0.067880975    1.3396896   -2.7540896    2.8219706   439061 
    3000    1.7089968   -2.6495183   -2.6495183 -0.086028992    1.0120157   -2.6495183    2.5634893   439061 
    4000    1.6226055   -2.6172461   -2.6172461  -0.18334338   0.78932828   -2.6172461    2.4339027   439061 
    5000     1.572948   -2.5724634   -2.5724634  -0.21304666   0.63455229   -2.5724634    2.3594167   439061 
    6000    1.5414541   -2.5182228   -2.5182228  -0.20604698   0.55124499   -2.5182228    2.3121758   439061 
    7000    1.5171391   -2.4613266   -2.4613266  -0.18562324   0.54952248   -2.4613266    2.2757034   439061 
    8000    1.5072982   -2.4238849   -2.4238849  -0.16294274    0.5871205   -2.4238849    2.2609422   439061 
    9000     1.510445   -2.4053306   -2.4053306  -0.13966828   0.62984337   -2.4053306    2.2656623   439061 
   10000    1.5202472   -2.3978854   -2.3978854  -0.11751988   0.67508418   -2.3978854    2.2803656   439061 
   11000    1.5302795    -2.393549    -2.393549 -0.098135026   0.72042639    -2.393549     2.295414   439061 
   12000    1.5329556   -2.3813783   -2.3813783 -0.081950135   0.73616002   -2.3813783    2.2994282   439061 
   13000    1.5227591     -2.35034     -2.35034 -0.066206583   0.68143653     -2.35034    2.2841334   439061 
   14000    1.5032808    -2.310127    -2.310127  -0.05521086   0.62413305    -2.310127    2.2549161   439061 
   15000    1.4911243   -2.2801592   -2.2801592  -0.04347774   0.59406528   -2.2801592    2.2366814   439061 
   16000    1.4904313   -2.2667905   -2.2667905 -0.031148588   0.59389403   -2.2667905    2.2356419   439061 
   17000    1.4891303   -2.2626988   -2.2626988 -0.029008456   0.60276713   -2.2626988    2.2336904   439061 
   18000    1.4758155   -2.2705451   -2.2705451  -0.05682685   0.59949324   -2.2705451    2.2137183   439061 
   19000    1.4508742   -2.2911069   -2.2911069  -0.11480056   0.60981467   -2.2911069    2.1763064   439061 
   20000    1.4244846   -2.3256506   -2.3256506  -0.18892862   0.62851899   -2.3256506     2.136722   439061 
   21000     1.399896   -2.3550972   -2.3550972  -0.25525792   0.62895791   -2.3550972    2.0998393   439061 
   22000    1.3814921   -2.3788553   -2.3788553   -0.3066219   0.61227468   -2.3788553    2.0722334   439061 
   23000     1.368259   -2.3950501   -2.3950501  -0.34266638   0.60713925   -2.3950501    2.0523838   439061 
   24000    1.3564891   -2.4052405   -2.4052405   -0.3705115   0.60692431   -2.4052405     2.034729   439061 
   25000    1.3461198   -2.4077897   -2.4077897  -0.38861452   0.58955362   -2.4077897    2.0191752   439061 
   26000    1.3360821   -2.4066557   -2.4066557  -0.40253717   0.56716941   -2.4066557    2.0041185   439061 
   27000    1.3241312   -2.3987734   -2.3987734  -0.41258117   0.54856293   -2.3987734    1.9861922   439061 
   28000    1.3119735   -2.3888546   -2.3888546  -0.42089877   0.52206431   -2.3888546    1.9679558   439061 
   29000    1.3011696   -2.3744537   -2.3744537  -0.42270369   0.48846325   -2.3744537      1.95175   439061 
   30000    1.2912345   -2.3592173   -2.3592173  -0.42236991   0.45824606   -2.3592173    1.9368474   439061 
   31000    1.2806134   -2.3411445   -2.3411445  -0.42022881   0.43689045   -2.3411445    1.9209157   439061 
   32000    1.2719959   -2.3253215   -2.3253215  -0.41733206   0.42060445   -2.3253215    1.9079894   439061 
   33000    1.2684464   -2.3161156   -2.3161156  -0.41345037   0.40736943   -2.3161156    1.9026653   439061 
   34000    1.2644672   -2.3049565   -2.3049565  -0.40826004   0.41151423   -2.3049565    1.8966964   439061 
   35000    1.2646539   -2.2979518   -2.2979518   -0.4009753   0.40809608   -2.2979518    1.8969765   439061 
   36000    1.2666852   -2.2932331   -2.2932331  -0.39320966   0.40945614   -2.2932331    1.9000234   439061 
   37000    1.2681848   -2.2902987   -2.2902987  -0.38802576   0.40713074   -2.2902987    1.9022729   439061 
   38000     1.268039   -2.2822115   -2.2822115  -0.38015736   0.41468549   -2.2822115    1.9020541   439061 
   39000    1.2713619   -2.2801927   -2.2801927  -0.37315412   0.41097615   -2.2801927    1.9070386   439061 
   40000    1.2702339   -2.2707422   -2.2707422  -0.36539568   0.41091688   -2.2707422    1.9053466   439061 
   41000    1.2717858   -2.2642389   -2.2642389  -0.35656456   0.40846963   -2.2642389    1.9076744   439061 
   42000    1.2707469   -2.2566453   -2.2566453  -0.35052934   0.40217758   -2.2566453    1.9061159   439061 
   43000    1.2730877   -2.2516771   -2.2516771  -0.34204989   0.40546676   -2.2516771    1.9096273   439061 
   44000    1.2790544   -2.2569204   -2.2569204  -0.33834316   0.40698507   -2.2569204    1.9185773   439061 
   45000     1.279311   -2.2628247   -2.2628247  -0.34386257   0.42296046   -2.2628247    1.9189621   439061 
   46000    1.2758522   -2.2730219   -2.2730219  -0.35924797   0.42850758   -2.2730219    1.9137739   439061 
   47000    1.2719305   -2.2874311   -2.2874311  -0.37953968   0.43300616   -2.2874311    1.9078915   439061 
   48000    1.2663054   -2.2971986   -2.2971986  -0.39774487   0.43925648   -2.2971986    1.8994538   439061 
   49000    1.2597881   -2.3061531   -2.3061531  -0.41647518   0.43309702   -2.3061531    1.8896779   439061 
   50000    1.2554185   -2.3139005   -2.3139005  -0.43077712   0.43635862   -2.3139005    1.8831234   439061 
   51000    1.2510021   -2.3200451   -2.3200451  -0.44354624   0.43043265   -2.3200451    1.8764988   439061 
   52000    1.2474567   -2.3256465   -2.3256465  -0.45446567   0.43437098   -2.3256465    1.8711808   439061 
   53000     1.244588   -2.3306063   -2.3306063  -0.46372862   0.42819176   -2.3306063    1.8668777   439061 
   54000    1.2410202   -2.3318286   -2.3318286  -0.47030254   0.41615892   -2.3318286    1.8615261   439061 
   55000    1.2367043   -2.3303454   -2.3303454  -0.47529327   0.41678459   -2.3303454    1.8550522   439061 
   56000    1.2310331    -2.324716    -2.324716  -0.47817054   0.40885496    -2.324716    1.8465454   439061 
   57000    1.2282693   -2.3220729   -2.3220729  -0.47967312   0.39641158   -2.3220729    1.8423998   439061 
   58000    1.2250388   -2.3180674   -2.3180674  -0.48051336   0.39156045   -2.3180674     1.837554   439061 
   59000     1.221202   -2.3131931   -2.3131931  -0.48139423    0.3740379   -2.3131931    1.8317989   439061 
   60000    1.2167891   -2.3052028   -2.3052028  -0.48002335   0.37295427   -2.3052028    1.8251795   439061 
   61000    1.2149629   -2.3007545   -2.3007545  -0.47831424   0.37150637   -2.3007545    1.8224402   439061 
   62000    1.2132876   -2.2975966   -2.2975966  -0.47766934   0.36582162   -2.2975966    1.8199273   439061 
   63000    1.2112427   -2.2914519   -2.2914519  -0.47459202   0.35806977   -2.2914519    1.8168599   439061 
   64000    1.2107169   -2.2857838   -2.2857838  -0.46971254   0.35810045   -2.2857838    1.8160713   439061 
   65000    1.2100018   -2.2805783   -2.2805783   -0.4655798   0.36247794   -2.2805783    1.8149985   439061 
   66000    1.2105178    -2.278456    -2.278456  -0.46268337   0.35894515    -2.278456    1.8157726   439061 
   67000    1.2111413   -2.2754027   -2.2754027  -0.45869493   0.35655478   -2.2754027    1.8167078   439061 
   68000    1.2112305   -2.2714564   -2.2714564  -0.45461476   0.35415154   -2.2714564    1.8168417   439061 
   69000    1.2147845   -2.2729966   -2.2729966    -0.450824   0.35264366   -2.2729966    1.8221726   439061 
   70000    1.2147776   -2.2688997   -2.2688997  -0.44673745   0.35651995   -2.2688997    1.8221623   439061 
   71000    1.2164771   -2.2682103   -2.2682103  -0.44349886   0.35600867   -2.2682103    1.8247115   439061 
   72000      1.21846   -2.2684153   -2.2684153  -0.44072939   0.36283215   -2.2684153    1.8276859   439061 
   73000     1.219261    -2.271043    -2.271043  -0.44215565   0.36681851    -2.271043    1.8288874   439061 
   74000    1.2195882   -2.2768874   -2.2768874   -0.4475093   0.36554883   -2.2768874    1.8293781   439061 
   75000    1.2177891   -2.2802736   -2.2802736  -0.45359407   0.37991594   -2.2802736    1.8266795   439061 
   76000    1.2186067   -2.2895484   -2.2895484  -0.46164249    0.3718606   -2.2895484    1.8279059   439061 
   77000    1.2144464   -2.2936215   -2.2936215  -0.47195609   0.37934129   -2.2936215    1.8216654   439061 
   78000     1.213556   -2.2995555   -2.2995555  -0.47922569   0.37478296   -2.2995555    1.8203298   439061 
   79000    1.2128837   -2.3052092   -2.3052092  -0.48588779   0.38006739   -2.3052092    1.8193214   439061 
   80000    1.2108873   -2.3075812   -2.3075812  -0.49125431   0.37639839   -2.3075812    1.8163269   439061 
   81000    1.2077941   -2.3085552   -2.3085552  -0.49686821   0.37668257   -2.3085552     1.811687   439061 
   82000     1.204846   -2.3105945   -2.3105945  -0.50332956   0.37816286   -2.3105945    1.8072649   439061 
   83000    1.2030166   -2.3112015   -2.3112015  -0.50668074   0.37266332   -2.3112015    1.8045208   439061 
   84000    1.2005401   -2.3107473   -2.3107473  -0.50994118   0.36979196   -2.3107473    1.8008061   439061 
   85000    1.2015824   -2.3122841   -2.3122841  -0.50991449   0.36692794   -2.3122841    1.8023696   439061 
   86000     1.198305   -2.3087892   -2.3087892  -0.51133575    0.3625268   -2.3087892    1.7974534   439061 
   87000     1.194941   -2.3061371   -2.3061371  -0.51372971   0.36173666   -2.3061371    1.7924074   439061 
   88000    1.1944985   -2.3062599   -2.3062599  -0.51451617   0.35241208   -2.3062599    1.7917437   439061 
   89000    1.1934667   -2.3046447   -2.3046447  -0.51444881   0.34911269   -2.3046447    1.7901959   439061 
   90000    1.1899868   -2.2995845   -2.2995845  -0.51460844   0.34194028   -2.2995845    1.7849761   439061 
   91000    1.1893522   -2.2976182   -2.2976182    -0.513594   0.34528139   -2.2976182    1.7840242   439061 
   92000    1.1889802   -2.2958339   -2.2958339  -0.51236768   0.33769671   -2.2958339    1.7834663   439061 
   93000    1.1890107   -2.2935377   -2.2935377   -0.5100256   0.34006253   -2.2935377    1.7835121   439061 
   94000    1.1878399   -2.2906419   -2.2906419  -0.50888616   0.33871503   -2.2906419    1.7817558   439061 
   95000    1.1880949   -2.2871548   -2.2871548  -0.50501656   0.33765862   -2.2871548    1.7821382   439061 
   96000    1.1897829   -2.2881102   -2.2881102     -0.50344   0.33095355   -2.2881102    1.7846702   439061 
   97000    1.1904185   -2.2867718   -2.2867718   -0.5011481   0.33439867   -2.2867718    1.7856237   439061 
   98000    1.1905277   -2.2845502   -2.2845502  -0.49876265   0.33286264   -2.2845502    1.7857875   439061 
   99000    1.1918247   -2.2856676   -2.2856676  -0.49793467   0.33860505   -2.2856676    1.7877329   439061 
  100000    1.1914012   -2.2840083   -2.2840083  -0.49691057   0.34002363   -2.2840083    1.7870977   439061 
  101000    1.1920226   -2.2849287   -2.2849287   -0.4968988   0.33862205   -2.2849287    1.7880299   439061 
  102000    1.1924766   -2.2862249   -2.2862249  -0.49751407   0.34186573   -2.2862249    1.7887108   439061 
  103000    1.1917585   -2.2865627   -2.2865627  -0.49892899   0.34928951   -2.2865627    1.7876337   439061 
  104000    1.1919892   -2.2906896   -2.2906896  -0.50270987   0.34640616   -2.2906896    1.7879797   439061 
  105000     1.192042   -2.2952596   -2.2952596  -0.50720063     0.343128   -2.2952596     1.788059   439061 
  106000     1.190649   -2.2974409   -2.2974409  -0.51147155   0.35034278   -2.2974409    1.7859694   439061 
  107000    1.1907143   -2.2999756   -2.2999756  -0.51390828   0.34715936   -2.2999756    1.7860673   439061 
  108000    1.1907524   -2.3047094   -2.3047094   -0.5185849   0.34602904   -2.3047094    1.7861245   439061 
  109000    1.1875318   -2.3035161   -2.3035161  -0.52222251   0.34926306   -2.3035161    1.7812936   439061 
  110000    1.1875283   -2.3077856   -2.3077856  -0.52649724   0.34912032   -2.3077856    1.7812884   439061 
  111000    1.1861338   -2.3079875   -2.3079875  -0.52879081   0.34589662   -2.3079875    1.7791966   439061 
  112000    1.1839783   -2.3074475   -2.3074475  -0.53148409   0.34412205   -2.3074475    1.7759635   439061 
  113000    1.1844135   -2.3112244   -2.3112244  -0.53460825   0.34322286   -2.3112244    1.7766162   439061 
  114000     1.181168   -2.3078939   -2.3078939  -0.53614586   0.34661311   -2.3078939     1.771748   439061 
  115000    1.1816813   -2.3103501   -2.3103501  -0.53783221   0.33884909   -2.3103501    1.7725179   439061 
  116000     1.180094   -2.3101068   -2.3101068  -0.53996978   0.33387616   -2.3101068     1.770137   439061 
  117000    1.1775697   -2.3065171   -2.3065171  -0.54016657   0.33498598   -2.3065171    1.7663505   439061 
  118000    1.1773875   -2.3063715   -2.3063715  -0.54029429   0.33524377   -2.3063715    1.7660772   439061 
  119000    1.1769593   -2.3062759   -2.3062759  -0.54084105   0.33239875   -2.3062759    1.7654349   439061 
  120000    1.1762826   -2.3045721   -2.3045721  -0.54015215   0.32891601   -2.3045721    1.7644199   439061 
  121000    1.1776864   -2.3062126   -2.3062126  -0.53968698   0.32702418   -2.3062126    1.7665256   439061 
  122000    1.1739057   -2.3006398   -2.3006398  -0.53978529   0.32724412   -2.3006398    1.7608545   439061 
  123000    1.1742256   -2.3000145   -2.3000145  -0.53868016   0.32748051   -2.3000145    1.7613344   439061 
  124000    1.1741855   -2.3003174   -2.3003174   -0.5390431   0.32674806   -2.3003174    1.7612743   439061 
  125000    1.1740456   -2.2995495   -2.2995495  -0.53848506   0.32663047   -2.2995495    1.7610645   439061 
  126000    1.1750211   -2.2989031   -2.2989031  -0.53637554   0.33049045   -2.2989031    1.7625276   439061 
  127000    1.1737173   -2.2970419   -2.2970419  -0.53646996    0.3242425   -2.2970419    1.7605719   439061 
  128000    1.1758943   -2.2998732   -2.2998732  -0.53603579   0.32808168   -2.2998732    1.7638374   439061 
  129000    1.1761664   -2.2999414   -2.2999414  -0.53569574   0.32514212   -2.2999414    1.7642456   439061 
  130000    1.1765961   -2.3018245   -2.3018245   -0.5369344   0.32275929   -2.3018245    1.7648901   439061 
  131000    1.1740624   -2.2994191   -2.2994191  -0.53832946   0.32490501   -2.2994191    1.7610897   439061 
  132000    1.1747068   -2.2992252   -2.2992252    -0.537169   0.32571716   -2.2992252    1.7620561   439061 
  133000    1.1742586   -2.3013847   -2.3013847  -0.54000082   0.32770197   -2.3013847    1.7613839   439061 
  134000    1.1737531   -2.3029749   -2.3029749  -0.54234931   0.32538488   -2.3029749    1.7606256   439061 
  135000    1.1737097   -2.3051268   -2.3051268  -0.54456619   0.32538104   -2.3051268    1.7605606   439061 
  136000    1.1735499   -2.3067393   -2.3067393  -0.54641848   0.32794426   -2.3067393    1.7603209   439061 
  137000    1.1725249   -2.3081366   -2.3081366   -0.5493532   0.32733907   -2.3081366    1.7587834   439061 
  138000    1.1716831   -2.3088674   -2.3088674  -0.55134678   0.32931016   -2.3088674    1.7575207   439061 
  139000    1.1716158   -2.3116544   -2.3116544  -0.55423478   0.33073971   -2.3116544    1.7574196   439061 
  140000    1.1699154    -2.311132    -2.311132  -0.55626293   0.32810414    -2.311132    1.7548691   439061 
  141000    1.1688296   -2.3113062   -2.3113062  -0.55806583   0.32510077   -2.3113062    1.7532404   439061 
  142000    1.1708891   -2.3137897   -2.3137897  -0.55746003   0.32624955   -2.3137897    1.7563297   439061 
  143000    1.1686579   -2.3122094   -2.3122094  -0.55922647   0.32391847   -2.3122094    1.7529829   439061 
  144000    1.1687235   -2.3127373   -2.3127373  -0.55965609   0.32074072   -2.3127373    1.7530813   439061 
  145000    1.1667397   -2.3108712   -2.3108712  -0.56076558   0.31986402   -2.3108712    1.7501056   439061 
  146000     1.167656   -2.3118082   -2.3118082  -0.56032822   0.32211163   -2.3118082      1.75148   439061 
  147000     1.167044   -2.3126825   -2.3126825  -0.56212048   0.31892263   -2.3126825     1.750562   439061 
  148000    1.1650547   -2.3098426   -2.3098426  -0.56226459   0.32250471   -2.3098426     1.747578   439061 
  149000    1.1659661   -2.3112701   -2.3112701  -0.56232491   0.31801863   -2.3112701    1.7489452   439061 
  150000    1.1659533   -2.3115567   -2.3115567  -0.56263076   0.31647306   -2.3115567    1.7489259   439061 
  151000    1.1638807    -2.307875    -2.307875  -0.56205796   0.32265599    -2.307875    1.7458171   439061 
  152000    1.1642711   -2.3092918   -2.3092918  -0.56288913   0.31957646   -2.3092918    1.7464026   439061 
  153000    1.1639876   -2.3093897   -2.3093897  -0.56341216   0.31966939   -2.3093897    1.7459775   439061 
  154000    1.1622624      -2.3053      -2.3053  -0.56191047   0.31861326      -2.3053    1.7433896   439061 
  155000    1.1650646   -2.3089046   -2.3089046  -0.56131162   0.31743757   -2.3089046     1.747593   439061 
  156000    1.1632489   -2.3057557   -2.3057557  -0.56088631   0.32199884   -2.3057557    1.7448694   439061 
  157000    1.1649648   -2.3080342   -2.3080342  -0.56059097    0.3143972   -2.3080342    1.7474432   439061 
  158000    1.1648409   -2.3082968   -2.3082968  -0.56103946   0.31215041   -2.3082968    1.7472574   439061 
  159000    1.1619049   -2.3058146   -2.3058146  -0.56296122   0.31438128   -2.3058146    1.7428534   439061 
  160000    1.1632268   -2.3065179   -2.3065179  -0.56168177   0.31467776   -2.3065179    1.7448362   439061 
  161000    1.1640203   -2.3072932   -2.3072932  -0.56126672   0.31916348   -2.3072932    1.7460264   439061 
  162000    1.1626413   -2.3073694   -2.3073694  -0.56341135   0.31428142   -2.3073694     1.743958   439061 
  163000    1.1622421   -2.3077342   -2.3077342  -0.56437501   0.31892428   -2.3077342    1.7433592   439061 
  164000    1.1618459   -2.3088058   -2.3088058  -0.56604087   0.31172516   -2.3088058    1.7427649   439061 
  165000    1.1614058   -2.3084934   -2.3084934  -0.56638863   0.31299704   -2.3084934    1.7421048   439061 
  166000    1.1616443   -2.3111777   -2.3111777  -0.56871529   0.31861393   -2.3111777    1.7424624   439061 
  167000    1.1603311   -2.3121689   -2.3121689   -0.5716762   0.31388713   -2.3121689    1.7404927   439061 
  168000     1.161825   -2.3134969   -2.3134969  -0.57076341   0.31594123   -2.3134969    1.7427335   439061 
  169000    1.1610124   -2.3122543   -2.3122543  -0.57073962   0.32085964   -2.3122543    1.7415147   439061 
  170000    1.1593385   -2.3117737   -2.3117737  -0.57276991   0.31921001   -2.3117737    1.7390038   439061 
  171000    1.1605951      -2.3145      -2.3145  -0.57361124   0.31319579      -2.3145    1.7408888   439061 
  172000    1.1604282   -2.3150884   -2.3150884   -0.5744501   0.31165677   -2.3150884    1.7406383   439061 
  173000    1.1591906   -2.3146776   -2.3146776  -0.57589567    0.3165867   -2.3146776    1.7387819   439061 
  174000    1.1577179    -2.315568    -2.315568  -0.57899512   0.31412693    -2.315568    1.7365729   439061 
  175000    1.1567352   -2.3143056   -2.3143056  -0.57920667   0.30976803   -2.3143056    1.7350989   439061 
  176000    1.1573604   -2.3155545   -2.3155545  -0.57951789   0.31431227   -2.3155545    1.7360366   439061 
  177000    1.1564004   -2.3152392   -2.3152392   -0.5806426   0.31268782   -2.3152392    1.7345966   439061 
  178000    1.1559293   -2.3149524   -2.3149524  -0.58106246   0.31013677   -2.3149524      1.73389   439061 
  179000     1.156489   -2.3167857   -2.3167857  -0.58205609    0.3065565   -2.3167857    1.7347296   439061 
  180000    1.1563417    -2.316224    -2.316224  -0.58171537   0.31267851    -2.316224    1.7345087   439061 
  181000    1.1563811    -2.317096    -2.317096  -0.58252825   0.30965439    -2.317096    1.7345678   439061 
  182000    1.1555104   -2.3143626   -2.3143626  -0.58110092    0.3157539   -2.3143626    1.7332617   439061 
  183000    1.1552056   -2.3145664   -2.3145664  -0.58176191   0.30786935   -2.3145664    1.7328045   439061 
  184000    1.1544997   -2.3151859   -2.3151859  -0.58344019   0.30788053   -2.3151859    1.7317457   439061 
  185000    1.1545134   -2.3147601   -2.3147601  -0.58299394    0.3104567   -2.3147601    1.7317662   439061 
  186000     1.153381   -2.3127881   -2.3127881  -0.58272057   0.30687355   -2.3127881    1.7300676   439061 
  187000    1.1535918   -2.3133731   -2.3133731  -0.58298935    0.3121582   -2.3133731    1.7303838   439061 
  188000    1.1529916   -2.3130118   -2.3130118  -0.58352829   0.31341204   -2.3130118    1.7294835   439061 
  189000    1.1536245    -2.314379    -2.314379   -0.5839462   0.31197698    -2.314379    1.7304328   439061 
  190000    1.1541894   -2.3165683   -2.3165683  -0.58528818   0.30404374   -2.3165683    1.7312801   439061 
  191000    1.1531976   -2.3162906   -2.3162906  -0.58649822   0.30207403   -2.3162906    1.7297924   439061 
  192000    1.1521041   -2.3140071   -2.3140071  -0.58585486    0.3069497   -2.3140071    1.7281522   439061 
  193000    1.1548033   -2.3173916   -2.3173916  -0.58519067   0.30590982   -2.3173916    1.7322009   439061 
  194000    1.1530521   -2.3146951   -2.3146951  -0.58512097   0.30608301   -2.3146951    1.7295741   439061 
  195000    1.1517212   -2.3134735   -2.3134735   -0.5858957    0.3109709   -2.3134735    1.7275778   439061 
  196000    1.1525323   -2.3161505   -2.3161505  -0.58735596   0.30402033   -2.3161505    1.7287945   439061 
  197000    1.1529639   -2.3164554   -2.3164554  -0.58701346   0.30822381   -2.3164554     1.729442   439061 
  198000    1.1504401   -2.3157615   -2.3157615  -0.59010536   0.30171366   -2.3157615    1.7256561   439061 
  199000    1.1516008   -2.3188707   -2.3188707   -0.5914735   0.30319446   -2.3188707    1.7273972   439061 
  200000    1.1499205   -2.3157871   -2.3157871  -0.59091024   0.30695359   -2.3157871    1.7248769   439061 
  201000    1.1518932   -2.3183496   -2.3183496  -0.59051377   0.30980899   -2.3183496    1.7278358   439061 
  202000     1.149846   -2.3165429   -2.3165429  -0.59177777   0.30468339   -2.3165429    1.7247651   439061 
  203000    1.1516753   -2.3198437   -2.3198437  -0.59233469   0.30300598   -2.3198437     1.727509   439061 
  204000    1.1489516   -2.3179716   -2.3179716  -0.59454816   0.30741014   -2.3179716    1.7234235   439061 
  205000    1.1481507   -2.3175414   -2.3175414  -0.59531934   0.30408227   -2.3175414    1.7222221   439061 
  206000    1.1487447   -2.3173305   -2.3173305   -0.5942174   0.30158527   -2.3173305    1.7231131   439061 
  207000    1.1488579   -2.3186548   -2.3186548  -0.59537196   0.30329355   -2.3186548    1.7232829   439061 
  208000    1.1481044   -2.3175483   -2.3175483  -0.59539563   0.30347281   -2.3175483    1.7221527   439061 
  209000    1.1477131   -2.3169738   -2.3169738  -0.59540812   0.30140259   -2.3169738    1.7215657   439061 
  210000    1.1481417   -2.3183224   -2.3183224  -0.59611382   0.29755385   -2.3183224    1.7222086   439061 
  211000    1.1478095   -2.3186524   -2.3186524  -0.59694211   0.29944087   -2.3186524    1.7217103   439061 
  212000    1.1457734   -2.3163341   -2.3163341  -0.59767791   0.30422361   -2.3163341    1.7186562   439061 
  213000    1.1480386   -2.3190157   -2.3190157  -0.59696174   0.30012702   -2.3190157     1.722054   439061 
  214000    1.1454717   -2.3162246   -2.3162246  -0.59802093   0.30095271   -2.3162246    1.7182036   439061 
  215000     1.145999   -2.3180124   -2.3180124  -0.59901787   0.30115385   -2.3180124    1.7189945   439061 
  216000    1.1448075   -2.3175237   -2.3175237  -0.60031642   0.30124817   -2.3175237    1.7172073   439061 
  217000    1.1465562   -2.3186072   -2.3186072  -0.59877691   0.29832631   -2.3186072    1.7198303   439061 
  218000    1.1456155     -2.31717     -2.31717  -0.59875059   0.29965788     -2.31717    1.7184194   439061 
  219000     1.146231   -2.3178303   -2.3178303  -0.59848775   0.30241907   -2.3178303    1.7193426   439061 
  220000     1.145071   -2.3182628   -2.3182628  -0.60066021   0.29955611   -2.3182628    1.7176026   439061 
  221000    1.1469774    -2.320475    -2.320475  -0.60001279   0.30485048    -2.320475    1.7204622   439061 
  222000    1.1456646   -2.3187722   -2.3187722  -0.60027923   0.30371459   -2.3187722    1.7184929   439061 
  223000    1.1444365   -2.3179956   -2.3179956  -0.60134478   0.30081163   -2.3179956    1.7166508   439061 
  224000    1.1460751   -2.3203981   -2.3203981  -0.60128938   0.29709537   -2.3203981    1.7191087   439061 
  225000    1.1463693   -2.3187477   -2.3187477  -0.59919762    0.3019733   -2.3187477    1.7195501   439061 
  226000    1.1451143   -2.3182395   -2.3182395  -0.60057203   0.30184849   -2.3182395    1.7176675   439061 
  227000    1.1434474   -2.3176179   -2.3176179  -0.60245071   0.29969603   -2.3176179    1.7151672   439061 
  228000    1.1431205   -2.3194285   -2.3194285  -0.60475171   0.29974257   -2.3194285    1.7146768   439061 
  229000    1.1439978   -2.3204232   -2.3204232  -0.60443043   0.29792516   -2.3204232    1.7159928   439061 
  230000    1.1432618   -2.3202107   -2.3202107  -0.60532192   0.30111307   -2.3202107    1.7148888   439061 
  231000    1.1429365    -2.320339    -2.320339  -0.60593805   0.29629836    -2.320339    1.7144009   439061 
  232000    1.1426162   -2.3207592   -2.3207592  -0.60683882   0.29641972   -2.3207592    1.7139204   439061 
  233000    1.1432628   -2.3229395   -2.3229395  -0.60804927   0.29116468   -2.3229395    1.7148902   439061 
  234000     1.142644   -2.3224535   -2.3224535  -0.60849131    0.2972674   -2.3224535    1.7139621   439061 
  235000    1.1416283   -2.3219134   -2.3219134  -0.60947484   0.29997047   -2.3219134    1.7124385   439061 
  236000    1.1415004   -2.3238652   -2.3238652  -0.61161848   0.29492679   -2.3238652    1.7122467   439061 
  237000    1.1408883   -2.3233402   -2.3233402  -0.61201171    0.2900367   -2.3233402    1.7113285   439061 
  238000    1.1408095   -2.3242184   -2.3242184  -0.61300806    0.2979454   -2.3242184    1.7112103   439061 
  239000    1.1408139   -2.3243519   -2.3243519  -0.61313499   0.29219242   -2.3243519    1.7112169   439061 
  240000    1.1394905   -2.3226936   -2.3226936   -0.6134617    0.2959799   -2.3226936    1.7092319   439061 
  241000    1.1400184   -2.3222805   -2.3222805  -0.61225675   0.29741653   -2.3222805    1.7100237   439061 
  242000     1.139625   -2.3227793   -2.3227793  -0.61334572   0.29198483   -2.3227793    1.7094336   439061 
  243000    1.1399916   -2.3242098   -2.3242098  -0.61422633   0.29485531   -2.3242098    1.7099835   439061 
  244000     1.139541    -2.324643    -2.324643  -0.61533536   0.29350815    -2.324643    1.7093077   439061 
  245000    1.1391402   -2.3245816   -2.3245816  -0.61587519   0.28873354   -2.3245816    1.7087064   439061 
  246000    1.1387759   -2.3238493   -2.3238493  -0.61568933   0.29970995   -2.3238493    1.7081599   439061 
  247000     1.138743   -2.3243428   -2.3243428  -0.61623216   0.29255272   -2.3243428    1.7081106   439061 
  248000    1.1391572   -2.3246749   -2.3246749  -0.61594298   0.29587169   -2.3246749    1.7087319   439061 
  249000    1.1384204   -2.3238146   -2.3238146  -0.61618796   0.29071545   -2.3238146    1.7076267   439061 
  250000     1.138907   -2.3249757   -2.3249757  -0.61661915   0.29080538   -2.3249757    1.7083566   439061 
  251000    1.1394228   -2.3267593   -2.3267593  -0.61762906   0.29274218   -2.3267593    1.7091302   439061 
  252000    1.1373556   -2.3244908   -2.3244908  -0.61846129   0.28707357   -2.3244908    1.7060295   439061 
  253000    1.1382998   -2.3265892   -2.3265892  -0.61914341   0.28920715   -2.3265892    1.7074458   439061 
  254000    1.1368051   -2.3242089   -2.3242089  -0.61900507   0.29231678   -2.3242089    1.7052038   439061 
  255000    1.1359547   -2.3232101   -2.3232101  -0.61928193   0.29152251   -2.3232101    1.7039282   439061 
  256000     1.137446     -2.32505     -2.32505  -0.61888488   0.29324525     -2.32505    1.7061651   439061 
  257000    1.1366742    -2.323809    -2.323809  -0.61880161   0.29212576    -2.323809    1.7050074   439061 
  258000    1.1358972   -2.3232085   -2.3232085  -0.61936654   0.29149904   -2.3232085     1.703842   439061 
  259000    1.1378532   -2.3250532   -2.3250532  -0.61827735   0.28583721   -2.3250532    1.7067759   439061 
  260000    1.1360326    -2.322551    -2.322551    -0.618506   0.28891281    -2.322551     1.704045   439061 
  261000    1.1352918   -2.3221673   -2.3221673  -0.61923358   0.28544162   -2.3221673    1.7029338   439061 
  262000    1.1345664   -2.3218721   -2.3218721  -0.62002636   0.29367902   -2.3218721    1.7018457   439061 
  263000    1.1354367   -2.3244108   -2.3244108  -0.62125962   0.28576432   -2.3244108    1.7031511   439061 
  264000    1.1349904   -2.3230508   -2.3230508  -0.62056913   0.29178449   -2.3230508    1.7024817   439061 
  265000    1.1355814   -2.3240467   -2.3240467  -0.62067848   0.29313983   -2.3240467    1.7033682   439061 
  266000    1.1358879    -2.324975    -2.324975  -0.62114697   0.28901783    -2.324975     1.703828   439061 
  267000    1.1338707   -2.3228747   -2.3228747  -0.62207256   0.28720945   -2.3228747    1.7008022   439061 
  268000    1.1343855   -2.3231856   -2.3231856  -0.62161124   0.28844389   -2.3231856    1.7015743   439061 
  269000    1.1350741   -2.3263874   -2.3263874   -0.6237802   0.28686558   -2.3263874    1.7026072   439061 
  270000    1.1343623   -2.3258625   -2.3258625   -0.6243229   0.29057025   -2.3258625    1.7015396   439061 
  271000     1.133411   -2.3241277   -2.3241277  -0.62401516   0.28894719   -2.3241277    1.7001126   439061 
  272000    1.1326404   -2.3247179   -2.3247179  -0.62576115   0.28703004   -2.3247179    1.6989568   439061 
  273000    1.1327884   -2.3247886   -2.3247886  -0.62560992   0.29128912   -2.3247886    1.6991787   439061 
  274000    1.1332173   -2.3248502   -2.3248502  -0.62502813    0.2912729   -2.3248502    1.6998221   439061 
  275000    1.1335099   -2.3264307   -2.3264307   -0.6261697   0.29064743   -2.3264307     1.700261   439061 
  276000     1.131733   -2.3238057   -2.3238057  -0.62621008   0.28807697   -2.3238057    1.6975956   439061 
  277000    1.1334863   -2.3271468   -2.3271468  -0.62692121   0.28707163   -2.3271468    1.7002255   439061 
  278000     1.131274   -2.3235918   -2.3235918  -0.62668469   0.28550089   -2.3235918    1.6969072   439061 
  279000    1.1318835   -2.3248247   -2.3248247  -0.62700331   0.29033411   -2.3248247    1.6978214   439061 
  280000    1.1326771   -2.3263374   -2.3263374   -0.6273256   0.28890949   -2.3263374    1.6990118   439061 
  281000    1.1319558   -2.3272982   -2.3272982  -0.62936838   0.28501615   -2.3272982    1.6979298   439061 
  282000     1.132955   -2.3281252   -2.3281252  -0.62869654   0.28561291   -2.3281252    1.6994287   439061 
  283000     1.131492   -2.3261517   -2.3261517   -0.6289176   0.28766215   -2.3261517    1.6972341   439061 
  284000    1.1312709   -2.3255585   -2.3255585  -0.62865601   0.28423487   -2.3255585    1.6969025   439061 
  285000    1.1309565   -2.3253513   -2.3253513  -0.62892041   0.28625978   -2.3253513    1.6964309   439061 
  286000    1.1298491   -2.3250679   -2.3250679  -0.63029815   0.28457544   -2.3250679    1.6947698   439061 
  287000    1.1304741   -2.3266026   -2.3266026   -0.6308954   0.28399368   -2.3266026    1.6957072   439061 
  288000    1.1313464   -2.3268413   -2.3268413  -0.62982561   0.28388686   -2.3268413    1.6970157   439061 
  289000    1.1302557   -2.3262684   -2.3262684  -0.63088877   0.28364507   -2.3262684    1.6953796   439061 
  290000    1.1301904   -2.3263121   -2.3263121  -0.63103037   0.28829324   -2.3263121    1.6952818   439061 
  291000    1.1293402   -2.3258104   -2.3258104  -0.63180387   0.28647191   -2.3258104    1.6940065   439061 
  292000    1.1286487   -2.3245335   -2.3245335  -0.63156425    0.2870712   -2.3245335    1.6929692   439061 
  293000    1.1298918   -2.3267923   -2.3267923  -0.63195852   0.28203476   -2.3267923    1.6948338   439061 
  294000     1.128601   -2.3264579   -2.3264579  -0.63356018   0.28399144   -2.3264579    1.6928977   439061 
  295000    1.1280929   -2.3259064   -2.3259064  -0.63377092   0.28426549   -2.3259064    1.6921355   439061 
  296000    1.1289571   -2.3262828   -2.3262828  -0.63285092   0.28280153   -2.3262828    1.6934319   439061 
  297000    1.1295939   -2.3267987   -2.3267987  -0.63241165    0.2826159   -2.3267987     1.694387   439061 
  298000    1.1281499     -2.32436     -2.32436  -0.63213906   0.28832098     -2.32436     1.692221   439061 
  299000    1.1307078   -2.3284076   -2.3284076  -0.63234974   0.28120806   -2.3284076    1.6960579   439061 
  300000    1.1295814   -2.3271265   -2.3271265  -0.63275836    0.2818551   -2.3271265    1.6943682   439061 
  301000    1.1293662   -2.3261565   -2.3261565  -0.63211102   0.28427022   -2.3261565    1.6940455   439061 
  302000    1.1302445   -2.3282328   -2.3282328  -0.63286988   0.28218703   -2.3282328    1.6953629   439061 
  303000     1.129842   -2.3293857   -2.3293857  -0.63462656   0.28172996   -2.3293857    1.6947592   439061 
  304000    1.1276444   -2.3267047   -2.3267047  -0.63524199   0.28771205   -2.3267047    1.6914627   439061 
  305000    1.1278008   -2.3275483   -2.3275483  -0.63585096   0.28628553   -2.3275483    1.6916974   439061 
  306000     1.126416   -2.3266439   -2.3266439  -0.63702372    0.2823309   -2.3266439    1.6896202   439061 
  307000    1.1275188    -2.327878    -2.327878  -0.63660363   0.28376946    -2.327878    1.6912744   439061 
  308000    1.1287058   -2.3299315   -2.3299315   -0.6368767   0.28030004   -2.3299315    1.6930548   439061 
  309000    1.1273571   -2.3301407   -2.3301407    -0.639109   0.27737777   -2.3301407    1.6910317   439061 
  310000    1.1257033   -2.3271028   -2.3271028  -0.63855164    0.2794591   -2.3271028    1.6885512   439061 
  311000    1.1258368   -2.3286942   -2.3286942  -0.63994285    0.2817681   -2.3286942    1.6887513   439061 
  312000    1.1258247   -2.3278543   -2.3278543  -0.63912111   0.28140371   -2.3278543    1.6887332   439061 
  313000    1.1249434   -2.3276732   -2.3276732  -0.64026203   0.27917405   -2.3276732    1.6874112   439061 
  314000    1.1255074   -2.3287531   -2.3287531  -0.64049587   0.28013448   -2.3287531    1.6882572   439061 
  315000    1.1248176   -2.3287892   -2.3287892  -0.64156666    0.2823463   -2.3287892    1.6872225   439061 
  316000    1.1246196   -2.3274848   -2.3274848  -0.64055913   0.27792372   -2.3274848    1.6869256   439061 
  317000    1.1252383   -2.3294499   -2.3294499  -0.64159632   0.27495749   -2.3294499    1.6878536   439061 
  318000    1.1244143   -2.3282704   -2.3282704  -0.64165284   0.27791973   -2.3282704    1.6866175   439061 
  319000    1.1256907   -2.3294822   -2.3294822  -0.64094992    0.2774102   -2.3294822    1.6885322   439061 
  320000    1.1241626    -2.328935    -2.328935  -0.64269498   0.27874346    -2.328935      1.68624   439061 
  321000     1.124687   -2.3291744   -2.3291744  -0.64214776   0.28009846   -2.3291744    1.6870266   439061 
  322000    1.1239707   -2.3275702   -2.3275702  -0.64161804     0.278154   -2.3275702    1.6859521   439061 
  323000     1.124225   -2.3283513   -2.3283513  -0.64201763   0.27642329   -2.3283513    1.6863337   439061 
  324000    1.1231495    -2.326711    -2.326711  -0.64199067   0.28175595    -2.326711    1.6847204   439061 
  325000    1.1242608   -2.3293303   -2.3293303  -0.64294291   0.27741226   -2.3293303    1.6863874   439061 
  326000    1.1231016   -2.3285948   -2.3285948  -0.64394615    0.2758439   -2.3285948    1.6846486   439061 
  327000    1.1218301   -2.3273805   -2.3273805  -0.64463918   0.27387453   -2.3273805    1.6827413   439061 
  328000    1.1225847   -2.3290064   -2.3290064  -0.64513323   0.27275018   -2.3290064    1.6838731   439061 
  329000    1.1228365   -2.3288673   -2.3288673  -0.64461634   0.27376686   -2.3288673     1.684251   439061 
  330000    1.1219158   -2.3280611   -2.3280611  -0.64519121   0.27309076   -2.3280611    1.6828699   439061 
  331000    1.1230648   -2.3296705   -2.3296705   -0.6450771   0.27380411   -2.3296705    1.6845934   439061 
  332000    1.1228795   -2.3289601   -2.3289601  -0.64464467   0.27541706   -2.3289601    1.6843154   439061 
  333000    1.1216514   -2.3292459   -2.3292459  -0.64677256   0.27854859   -2.3292459    1.6824733   439061 
  334000    1.1219189   -2.3299018   -2.3299018  -0.64702729   0.27156349   -2.3299018    1.6828745   439061 
  335000    1.1218557   -2.3299562   -2.3299562  -0.64717655   0.27500006   -2.3299562    1.6827797   439061 
  336000    1.1218519   -2.3300228   -2.3300228  -0.64724877    0.2732159   -2.3300228     1.682774   439061 
  337000    1.1202526   -2.3296877   -2.3296877   -0.6493126    0.2783426   -2.3296877    1.6803751   439061 
  338000     1.121812   -2.3318527   -2.3318527  -0.64913857   0.27715707   -2.3318527    1.6827141   439061 
  339000    1.1209732   -2.3296762   -2.3296762  -0.64822029   0.27575236   -2.3296762    1.6814559   439061 
  340000    1.1213365   -2.3303272   -2.3303272  -0.64832627    0.2758922   -2.3303272    1.6820009   439061 
  341000    1.1217915    -2.329921    -2.329921  -0.64723759   0.27638634    -2.329921    1.6826834   439061 
  342000    1.1213976   -2.3295956   -2.3295956  -0.64750304   0.27832245   -2.3295956    1.6820925   439061 
  343000    1.1198443   -2.3294687   -2.3294687  -0.64970613   0.27651256   -2.3294687    1.6797626   439061 
  344000    1.1207318   -2.3295732   -2.3295732  -0.64847937   0.27226058   -2.3295732    1.6810938   439061 
  345000    1.1205838   -2.3298397   -2.3298397   -0.6489679   0.28038507   -2.3298397    1.6808718   439061 
  346000    1.1196085   -2.3280934   -2.3280934  -0.64868444   0.27963665   -2.3280934     1.679409   439061 
  347000    1.1193846   -2.3300783   -2.3300783  -0.65100523   0.27365456   -2.3300783     1.679073   439061 
  348000    1.1193407   -2.3294843   -2.3294843  -0.65047712   0.27395607   -2.3294843    1.6790072   439061 
  349000    1.1197607   -2.3312621   -2.3312621  -0.65162488   0.27557573   -2.3312621    1.6796372   439061 
  350000    1.1189054   -2.3318614   -2.3318614  -0.65350707   0.27024734   -2.3318614    1.6783543   439061 
  351000    1.1188901    -2.330818    -2.330818  -0.65248676   0.27458343    -2.330818    1.6783313   439061 
  352000    1.1190779   -2.3316182   -2.3316182  -0.65300519    0.2762426   -2.3316182     1.678613   439061 
  353000    1.1185548   -2.3307028   -2.3307028   -0.6528744   0.26895982   -2.3307028    1.6778284   439061 
  354000    1.1156012   -2.3275103   -2.3275103  -0.65411236   0.27267231   -2.3275103    1.6733979   439061 
  355000    1.1171745   -2.3283032   -2.3283032  -0.65254525   0.27298387   -2.3283032     1.675758   439061 
  356000     1.118486   -2.3305107   -2.3305107  -0.65278555   0.27358546   -2.3305107    1.6777252   439061 
  357000    1.1185934   -2.3315242   -2.3315242  -0.65363793   0.26984663   -2.3315242    1.6778863   439061 
  358000     1.117522   -2.3307803   -2.3307803  -0.65450116   0.27284699   -2.3307803    1.6762791   439061 
  359000    1.1180762   -2.3318551   -2.3318551  -0.65474467   0.27274708   -2.3318551    1.6771105   439061 
  360000    1.1169521   -2.3297281   -2.3297281  -0.65430368   0.27306616   -2.3297281    1.6754244   439061 
  361000    1.1176739   -2.3296147   -2.3296147  -0.65310766   0.27240642   -2.3296147     1.676507   439061 
  362000    1.1183515   -2.3317038   -2.3317038  -0.65418042   0.27283665   -2.3317038    1.6775234   439061 
  363000    1.1161887   -2.3302185   -2.3302185  -0.65593935   0.27247695   -2.3302185    1.6742792   439061 
  364000    1.1168434   -2.3298075   -2.3298075  -0.65454623   0.27133638   -2.3298075    1.6752613   439061 
  365000    1.1165256   -2.3297858   -2.3297858  -0.65500123   0.26963456   -2.3297858    1.6747845   439061 
  366000    1.1170799   -2.3308747   -2.3308747  -0.65525877   0.26855349   -2.3308747     1.675616   439061 
  367000    1.1183977   -2.3342591   -2.3342591  -0.65666632   0.26776096   -2.3342591    1.6775927   439061 
  368000    1.1159376   -2.3317297   -2.3317297  -0.65782711     0.271102   -2.3317297    1.6739026   439061 
  369000    1.1158026   -2.3316073   -2.3316073  -0.65790717   0.27398766   -2.3316073    1.6737001   439061 
  370000     1.116792    -2.332769    -2.332769  -0.65758477   0.27180389    -2.332769    1.6751842   439061 
  371000     1.115953   -2.3328822   -2.3328822  -0.65895651   0.26744433   -2.3328822    1.6739257   439061 
  372000    1.1156761   -2.3324195   -2.3324195  -0.65890919   0.27351976   -2.3324195    1.6735103   439061 
  373000    1.1153896    -2.332533    -2.332533  -0.65945242   0.26780393    -2.332533    1.6730806   439061 
  374000     1.115682   -2.3331893   -2.3331893  -0.65967003   0.26773887   -2.3331893    1.6735192   439061 
  375000    1.1154197   -2.3337167   -2.3337167  -0.66059087   0.26514217   -2.3337167    1.6731258   439061 
  376000    1.1153632   -2.3352276   -2.3352276  -0.66218665   0.26402941   -2.3352276     1.673041   439061 
  377000    1.1121381     -2.32944     -2.32944  -0.66123673   0.26493322     -2.32944    1.6682033   439061 
  378000    1.1133825   -2.3322842   -2.3322842   -0.6622143   0.26492551   -2.3322842    1.6700699   439061 
  379000    1.1128632   -2.3317669   -2.3317669  -0.66247599   0.27035823   -2.3317669    1.6692909   439061 
  380000    1.1116648   -2.3299432   -2.3299432  -0.66244987   0.27110618   -2.3299432    1.6674934   439061 
  381000    1.1143926   -2.3324528   -2.3324528  -0.66086776   0.26878469   -2.3324528     1.671585   439061 
  382000    1.1151312   -2.3329879   -2.3329879  -0.66029498   0.26709552   -2.3329879    1.6726929   439061 
  383000    1.1146733   -2.3328476   -2.3328476  -0.66084153   0.26847577   -2.3328476    1.6720061   439061 
  384000    1.1133109   -2.3307884   -2.3307884  -0.66082583   0.26660145   -2.3307884    1.6699625   439061 
  385000    1.1138843   -2.3327492   -2.3327492   -0.6619266   0.26285856   -2.3327492    1.6708226   439061 
  386000    1.1126943   -2.3308572   -2.3308572  -0.66181947   0.27321104   -2.3308572    1.6690377   439061 
  387000    1.1133577   -2.3312582   -2.3312582  -0.66122539   0.27045623   -2.3312582    1.6700328   439061 
  388000    1.1125186   -2.3308798   -2.3308798  -0.66210571    0.2658045   -2.3308798    1.6687741   439061 
  389000    1.1118092   -2.3305666   -2.3305666  -0.66285658   0.26681965   -2.3305666      1.66771   439061 
  390000    1.1135221   -2.3337227   -2.3337227  -0.66344338   0.26635205   -2.3337227    1.6702794   439061 
  391000    1.1134003   -2.3340455   -2.3340455  -0.66394886   0.26982564   -2.3340455    1.6700967   439061 
  392000    1.1120348   -2.3321105   -2.3321105  -0.66406213   0.26733348   -2.3321105    1.6680483   439061 
  393000    1.1131667   -2.3337579   -2.3337579  -0.66401174   0.26883136   -2.3337579    1.6697462   439061 
  394000    1.1116778    -2.331898    -2.331898  -0.66438516   0.26408346    -2.331898    1.6675129   439061 
  395000    1.1138714   -2.3346689   -2.3346689  -0.66386557   0.26534198   -2.3346689    1.6708033   439061 
  396000     1.112053   -2.3316382   -2.3316382  -0.66356249   0.26449441   -2.3316382    1.6680757   439061 
  397000    1.1120146   -2.3321505   -2.3321505  -0.66413238   0.27060606   -2.3321505    1.6680181   439061 
  398000    1.1128969   -2.3330426   -2.3330426  -0.66370115   0.26295422   -2.3330426    1.6693415   439061 
  399000    1.1131839   -2.3340621   -2.3340621  -0.66428998   0.26178588   -2.3340621    1.6697721   439061 
  400000    1.1125115   -2.3342007   -2.3342007  -0.66543726   0.26204327   -2.3342007    1.6687634   439061 
  401000    1.1108443   -2.3318005   -2.3318005  -0.66553784   0.26772862   -2.3318005    1.6662626   439061 
  402000    1.1107695   -2.3317343   -2.3317343  -0.66558389   0.26435231   -2.3317343    1.6661504   439061 
  403000    1.1128175   -2.3348202   -2.3348202  -0.66559772   0.26549474   -2.3348202    1.6692224   439061 
  404000     1.110831   -2.3304995   -2.3304995  -0.66425678   0.26445519   -2.3304995    1.6662427   439061 
  405000    1.1102835   -2.3319399   -2.3319399  -0.66651843   0.26162106   -2.3319399    1.6654214   439061 
  406000    1.1095648   -2.3308259   -2.3308259  -0.66648257    0.2661196   -2.3308259    1.6643434   439061 
  407000     1.111375   -2.3324392   -2.3324392  -0.66538049   0.26360038   -2.3324392    1.6670587   439061 
  408000    1.1105407   -2.3314249   -2.3314249  -0.66561763   0.26782396   -2.3314249    1.6658073   439061 
  409000    1.1093535   -2.3316019   -2.3316019  -0.66757544   0.26482147   -2.3316019    1.6640265   439061 
  410000    1.1087472   -2.3317672   -2.3317672  -0.66865017   0.26580155   -2.3317672     1.663117   439061 
  411000    1.1087334   -2.3316711   -2.3316711  -0.66857488   0.27092498   -2.3316711    1.6630963   439061 
  412000    1.1087785    -2.332494    -2.332494     -0.66933      0.26142    -2.332494     1.663164   439061 
  413000     1.109392   -2.3339392   -2.3339392  -0.66985489   0.25608958   -2.3339392    1.6640843   439061 
  414000    1.1086788     -2.33345     -2.33345  -0.67043565   0.26171966     -2.33345    1.6630144   439061 
  415000    1.1097398   -2.3342769   -2.3342769  -0.66967091   0.26145243   -2.3342769     1.664606   439061 
  416000    1.1089615   -2.3334377   -2.3334377  -0.66999926   0.26158972   -2.3334377    1.6634385   439061 
  417000    1.1077377   -2.3318873   -2.3318873  -0.67028458   0.26686639   -2.3318873    1.6616028   439061 
  418000    1.1071012   -2.3317567   -2.3317567  -0.67110873   0.26366651   -2.3317567     1.660648   439061 
  419000    1.1075341   -2.3320478   -2.3320478   -0.6707504   0.26556775   -2.3320478    1.6612974   439061 
  420000    1.1094308   -2.3339204   -2.3339204  -0.66977797   0.26216765   -2.3339204    1.6641425   439061 
  421000    1.1095711    -2.334056    -2.334056  -0.66970322   0.26108322    -2.334056    1.6643528   439061 
  422000    1.1083728   -2.3329171   -2.3329171   -0.6703617   0.26302927   -2.3329171    1.6625554   439061 
  423000     1.109322   -2.3347064   -2.3347064  -0.67072723   0.26431236   -2.3347064    1.6639792   439061 
  424000    1.1094356   -2.3371982   -2.3371982  -0.67304857   0.25112887   -2.3371982    1.6641497   439061 
  425000    1.1098162   -2.3360463   -2.3360463  -0.67132569   0.25918933   -2.3360463    1.6647206   439061 
  426000    1.1091289   -2.3360183   -2.3360183  -0.67232865   0.25777536   -2.3360183    1.6636896   439061 
  427000    1.1066467   -2.3330611   -2.3330611  -0.67309486   0.26290079   -2.3330611    1.6599662   439061 
  428000    1.1064562   -2.3329283   -2.3329283  -0.67324774   0.26071595   -2.3329283    1.6596805   439061 
  429000    1.1078398   -2.3355603   -2.3355603  -0.67380433    0.2617353   -2.3355603     1.661756   439061 
  430000    1.1080162   -2.3371636   -2.3371636  -0.67514299   0.26168087   -2.3371636    1.6620206   439061 
  431000    1.1076438    -2.335617    -2.335617  -0.67415511   0.26197221    -2.335617    1.6614619   439061 
  432000    1.1067951   -2.3348773   -2.3348773  -0.67468852   0.25922721   -2.3348773    1.6601888   439061 
  433000    1.1073027    -2.335478    -2.335478  -0.67452766   0.26408497    -2.335478    1.6609503   439061 
  434000    1.1072041   -2.3356029   -2.3356029  -0.67480061    0.2591749   -2.3356029    1.6608023   439061 
  435000    1.1069329   -2.3339548   -2.3339548  -0.67355926   0.26501448   -2.3339548    1.6603955   439061 
  436000    1.1077202   -2.3358524   -2.3358524  -0.67427581   0.25798005   -2.3358524    1.6615765   439061 
  437000    1.1079462   -2.3354439   -2.3354439  -0.67352846   0.25660866   -2.3354439    1.6619155   439061 
  438000    1.1073938   -2.3351274   -2.3351274  -0.67404042    0.2562702   -2.3351274     1.661087   439061 
  439000    1.1053601   -2.3328312   -2.3328312  -0.67479483   0.26487633   -2.3328312    1.6580364   439061 
  440000    1.1059469   -2.3343904   -2.3343904  -0.67547392   0.25945924   -2.3343904    1.6589165   439061 
  441000    1.1059775   -2.3346074   -2.3346074  -0.67564493   0.25968209   -2.3346074    1.6589625   439061 
  442000    1.1037484   -2.3316837   -2.3316837  -0.67606484   0.26391609   -2.3316837    1.6556189   439061 
  443000    1.1047331   -2.3327024   -2.3327024  -0.67560653   0.26276541   -2.3327024    1.6570959   439061 
  444000     1.106409   -2.3356004   -2.3356004  -0.67599066   0.25977441   -2.3356004    1.6596097   439061 
  445000    1.1050875   -2.3339029   -2.3339029  -0.67627552   0.26272999   -2.3339029    1.6576274   439061 
  446000    1.1047162   -2.3338351   -2.3338351  -0.67676465   0.25951028   -2.3338351    1.6570705   439061 
  447000    1.1040241   -2.3334052   -2.3334052  -0.67737275   0.25667423   -2.3334052    1.6560324   439061 
  448000    1.1055088   -2.3350138   -2.3350138  -0.67675427   0.25432946   -2.3350138    1.6582595   439061 
  449000    1.1052329   -2.3345729   -2.3345729  -0.67672733   0.25851127   -2.3345729    1.6578455   439061 
  450000    1.1054535   -2.3340976   -2.3340976  -0.67592112   0.25693133   -2.3340976    1.6581765   439061 
  451000    1.1044606   -2.3340433   -2.3340433   -0.6773561   0.25454079   -2.3340433    1.6566872   439061 
  452000    1.1033244   -2.3329577   -2.3329577  -0.67797478   0.26277026   -2.3329577    1.6549829   439061 
  453000    1.1047191    -2.336356    -2.336356  -0.67928104   0.26102195    -2.336356    1.6570749   439061 
  454000    1.1046281   -2.3366371   -2.3366371  -0.67969865   0.25558548   -2.3366371    1.6569384   439061 
  455000    1.1030642   -2.3342221   -2.3342221   -0.6796296   0.25308674   -2.3342221    1.6545925   439061 
  456000    1.1050832   -2.3368315   -2.3368315   -0.6792105   0.25701646   -2.3368315     1.657621   439061 
  457000    1.1045549   -2.3367404   -2.3367404  -0.67991185   0.25610423   -2.3367404    1.6568285   439061 
  458000    1.1043495   -2.3367043   -2.3367043  -0.68018381   0.25451993   -2.3367043    1.6565205   439061 
  459000    1.1037707   -2.3355823   -2.3355823  -0.67993003   0.25479512   -2.3355823    1.6556523   439061 
  460000    1.1038805    -2.336332    -2.336332  -0.68051509   0.25798056    -2.336332     1.655817   439061 
  461000    1.1027372   -2.3347046   -2.3347046  -0.68060254    0.2574181   -2.3347046    1.6541021   439061 
  462000     1.104516   -2.3358466   -2.3358466  -0.67907638   0.25519679   -2.3358466    1.6567702   439061 
  463000    1.1051713   -2.3372957   -2.3372957  -0.67954242   0.25489918   -2.3372957    1.6577532   439061 
  464000    1.1036636    -2.335697    -2.335697  -0.68020542   0.25354673    -2.335697    1.6554916   439061 
  465000    1.1029642   -2.3361878   -2.3361878   -0.6817453   0.26020369   -2.3361878    1.6544425   439061 
  466000    1.1026926   -2.3357255   -2.3357255  -0.68169037   0.26276586   -2.3357255    1.6540351   439061 
  467000    1.1020523   -2.3359685   -2.3359685   -0.6828939   0.25372115   -2.3359685    1.6530746   439061 
  468000     1.102125   -2.3361064   -2.3361064  -0.68292267   0.25809412   -2.3361064    1.6531837   439061 
  469000     1.101536   -2.3364247   -2.3364247   -0.6841245   0.25445114   -2.3364247    1.6523002   439061 
  470000    1.1010167    -2.334303    -2.334303  -0.68278181   0.24948397    -2.334303    1.6515212   439061 
  471000    1.1020333   -2.3375002   -2.3375002  -0.68445409   0.25649737   -2.3375002    1.6530461   439061 
  472000    1.1000459    -2.333387    -2.333387   -0.6833219   0.25587206    -2.333387    1.6500651   439061 
  473000    1.1023111   -2.3362899   -2.3362899  -0.68282708   0.25577573   -2.3362899    1.6534628   439061 
  474000    1.1009388   -2.3348107   -2.3348107  -0.68340637   0.25716205   -2.3348107    1.6514044   439061 
  475000    1.1011497   -2.3350301   -2.3350301  -0.68330934   0.25009755   -2.3350301    1.6517208   439061 
  476000    1.1017199   -2.3356147   -2.3356147  -0.68303856   0.25441206   -2.3356147    1.6525761   439061 
  477000    1.1014217   -2.3357801   -2.3357801   -0.6836513   0.25011239   -2.3357801    1.6521288   439061 
  478000    1.1028259   -2.3363918   -2.3363918  -0.68215665   0.25630436   -2.3363918    1.6542351   439061 
  479000    1.1023165   -2.3361385   -2.3361385  -0.68266757   0.24794272   -2.3361385     1.653471   439061 
  480000    1.1032571   -2.3364309   -2.3364309  -0.68154902   0.26032418   -2.3364309    1.6548818   439061 
  481000    1.1004751   -2.3326232   -2.3326232  -0.68191427   0.25392307   -2.3326232    1.6507089   439061 
  482000    1.1012405   -2.3342375   -2.3342375  -0.68238056   0.25781952   -2.3342375    1.6518569   439061 
  483000    1.1017383   -2.3358338   -2.3358338  -0.68323014    0.2557134   -2.3358338    1.6526036   439061 
  484000    1.1021204   -2.3351772   -2.3351772  -0.68200045   0.26058264   -2.3351772    1.6531768   439061 
  485000    1.1006936   -2.3343307   -2.3343307  -0.68329401   0.25735216   -2.3343307    1.6510367   439061 
  486000      1.10043   -2.3353676   -2.3353676   -0.6847264   0.25091725   -2.3353676    1.6506412   439061 
  487000    1.1015467   -2.3371721   -2.3371721  -0.68485573   0.25021401   -2.3371721    1.6523163   439061 
  488000    1.0991361   -2.3337892   -2.3337892  -0.68508884   0.25480922   -2.3337892    1.6487004   439061 
  489000    1.1002858   -2.3363554   -2.3363554  -0.68593042   0.24982902   -2.3363554     1.650425   439061 
  490000    1.0998531   -2.3353415   -2.3353415  -0.68556571   0.25253805   -2.3353415    1.6497758   439061 
  491000    1.1003785    -2.336366    -2.336366  -0.68580204   0.25505365    -2.336366     1.650564   439061 
  492000    1.0984412    -2.334792    -2.334792  -0.68713393   0.25734342    -2.334792    1.6476581   439061 
  493000    1.1003097   -2.3378907   -2.3378907  -0.68742986   0.25322947   -2.3378907    1.6504608   439061 
  494000    1.0994044   -2.3356531   -2.3356531  -0.68655034   0.25498742   -2.3356531    1.6491028   439061 
  495000    1.1007805   -2.3364745   -2.3364745   -0.6853075   0.25238245   -2.3364745     1.651167   439061 
  496000    1.1005427   -2.3370408   -2.3370408  -0.68623048   0.25334806   -2.3370408    1.6508103   439061 
  497000    1.0997656   -2.3375895   -2.3375895  -0.68794487   0.24668639   -2.3375895    1.6496447   439061 
  498000    1.0977408   -2.3353051   -2.3353051  -0.68869768   0.25701945   -2.3353051    1.6466074   439061 
  499000    1.1002182   -2.3389859   -2.3389859  -0.68866228   0.25317149   -2.3389859    1.6503236   439061 
  500000    1.0976809   -2.3348332   -2.3348332  -0.68831553   0.25389472   -2.3348332    1.6465177   439061 
  501000    1.0996108   -2.3373818   -2.3373818  -0.68796931   0.25412462   -2.3373818    1.6494125   439061 
  502000       1.0999    -2.337692    -2.337692  -0.68784586   0.25370151    -2.337692    1.6498462   439061 
  503000    1.0985617   -2.3354425   -2.3354425  -0.68760371   0.25215298   -2.3354425    1.6478388   439061 
  504000    1.0972356    -2.334927    -2.334927  -0.68907732   0.25475331    -2.334927    1.6458497   439061 
  505000    1.0972121   -2.3356057   -2.3356057  -0.68979131   0.25422107   -2.3356057    1.6458144   439061 
  506000     1.098638   -2.3374089   -2.3374089  -0.68945566   0.24879591   -2.3374089    1.6479533   439061 
  507000    1.0966484   -2.3350778   -2.3350778  -0.69010891   0.25383447   -2.3350778    1.6449689   439061 
  508000    1.0986813   -2.3367482   -2.3367482   -0.6887301   0.25102767   -2.3367482    1.6480181   439061 
  509000    1.0984163   -2.3379692   -2.3379692  -0.69034849    0.2459107   -2.3379692    1.6476207   439061 
  510000    1.0969629   -2.3364079   -2.3364079  -0.69096724   0.24782181   -2.3364079    1.6454406   439061 
  511000    1.0970165   -2.3351026   -2.3351026  -0.68958159   0.25175296   -2.3351026     1.645521   439061 
  512000      1.09662   -2.3359725   -2.3359725  -0.69104625   0.24891811   -2.3359725    1.6449262   439061 
  513000    1.0969336   -2.3357591   -2.3357591  -0.69036248   0.25142531   -2.3357591    1.6453966   439061 
  514000    1.0989435   -2.3377659   -2.3377659  -0.68935449   0.25301423   -2.3377659    1.6484114   439061 
  515000    1.0974038   -2.3350829   -2.3350829  -0.68898093   0.25068939   -2.3350829     1.646102   439061 
  516000    1.0978717   -2.3365253   -2.3365253  -0.68972152    0.2468306   -2.3365253    1.6468038   439061 
  517000    1.0992071   -2.3393135   -2.3393135  -0.69050654   0.24876837   -2.3393135    1.6488069   439061 
  518000    1.0964312   -2.3353335   -2.3353335  -0.69069042   0.25402243   -2.3353335    1.6446431   439061 
  519000    1.0971102   -2.3367941   -2.3367941   -0.6911325   0.24623879   -2.3367941    1.6456616   439061 
  520000    1.0967803    -2.337397    -2.337397  -0.69223034   0.24622946    -2.337397    1.6451667   439061 
  521000    1.0976011   -2.3382715   -2.3382715  -0.69187363   0.25295682   -2.3382715    1.6463978   439061 
  522000    1.0952465   -2.3349622   -2.3349622  -0.69209613   0.25545999   -2.3349622    1.6428661   439061 
  523000    1.0954761   -2.3371196   -2.3371196  -0.69390915   0.24858388   -2.3371196    1.6432105   439061 
  524000    1.0961534   -2.3389411   -2.3389411  -0.69471466   0.24941763   -2.3389411    1.6442264   439061 
  525000    1.0948845   -2.3353323   -2.3353323  -0.69300931   0.25263465   -2.3353323     1.642323   439061 
  526000    1.0966871    -2.338567    -2.338567  -0.69354013   0.24570102    -2.338567    1.6450268   439061 
  527000    1.0957746   -2.3378954   -2.3378954  -0.69423732   0.24941821   -2.3378954    1.6436581   439061 
  528000     1.097008   -2.3385063   -2.3385063  -0.69299806   0.25051406   -2.3385063    1.6455082   439061 
  529000    1.0966099    -2.337997    -2.337997  -0.69308588   0.25030496    -2.337997    1.6449111   439061 
  530000    1.0966961    -2.336953    -2.336953  -0.69191258   0.24847673    -2.336953    1.6450405   439061 
  531000    1.0971308   -2.3381397   -2.3381397  -0.69244725   0.24691533   -2.3381397    1.6456925   439061 
  532000    1.0968546   -2.3376866   -2.3376866  -0.69240851   0.24512489   -2.3376866    1.6452781   439061 
  533000    1.0948728   -2.3355267   -2.3355267  -0.69322123   0.24904643   -2.3355267    1.6423054   439061 
  534000    1.0958006   -2.3364903   -2.3364903   -0.6927932   0.24914732   -2.3364903    1.6436971   439061 
  535000    1.0962323   -2.3383178   -2.3383178  -0.69397302   0.24951687   -2.3383178    1.6443447   439061 
  536000    1.0961912     -2.33826     -2.33826    -0.693977   0.24807732     -2.33826     1.644283   439061 
  537000    1.0955272   -2.3371841   -2.3371841  -0.69389705    0.2481399   -2.3371841     1.643287   439061 
  538000     1.094178   -2.3362704   -2.3362704  -0.69500716   0.24629443   -2.3362704    1.6412632   439061 
  539000    1.0941214   -2.3370823   -2.3370823  -0.69590393   0.24632265   -2.3370823    1.6411783   439061 
  540000    1.0932027   -2.3378172   -2.3378172  -0.69801682   0.24088406   -2.3378172    1.6398004   439061 
  541000    1.0930118   -2.3367224   -2.3367224  -0.69720841   0.24675982   -2.3367224    1.6395139   439061 
  542000    1.0934962   -2.3376415   -2.3376415  -0.69740093   0.24794248   -2.3376415    1.6402406   439061 
  543000    1.0930686   -2.3368122   -2.3368122  -0.69721302    0.2463509   -2.3368122    1.6395992   439061 
  544000    1.0952087   -2.3384949   -2.3384949  -0.69568554   0.24361262   -2.3384949    1.6428094   439061 
  545000    1.0941366   -2.3383168   -2.3383168  -0.69711559    0.2438794   -2.3383168    1.6412012   439061 
  546000    1.0939432   -2.3372569   -2.3372569  -0.69634579   0.24980408   -2.3372569    1.6409111   439061 
  547000    1.0935622   -2.3370401   -2.3370401  -0.69670047    0.2427439   -2.3370401    1.6403396   439061 
  548000    1.0923838   -2.3361381   -2.3361381  -0.69756611   0.24694323   -2.3361381     1.638572   439061 
  549000    1.0938787   -2.3366307   -2.3366307  -0.69581644   0.24558729   -2.3366307    1.6408143   439061 
  550000    1.0947997   -2.3383675   -2.3383675  -0.69617175   0.24529531   -2.3383675    1.6421958   439061 
  551000     1.093818   -2.3364454   -2.3364454  -0.69572213   0.24370167   -2.3364454    1.6407232   439061 
  552000    1.0945114   -2.3379559   -2.3379559  -0.69619257   0.24554293   -2.3379559    1.6417633   439061 
  553000    1.0927672   -2.3366792   -2.3366792  -0.69753213   0.23949823   -2.3366792    1.6391471   439061 
  554000    1.0928188    -2.337712    -2.337712   -0.6984875   0.24309877    -2.337712    1.6392245   439061 
  555000    1.0930628   -2.3374074   -2.3374074  -0.69781689   0.24605018   -2.3374074    1.6395905   439061 
  556000    1.0937471   -2.3378466   -2.3378466  -0.69722962   0.23645122   -2.3378466     1.640617   439061 
  557000    1.0913777   -2.3355521   -2.3355521  -0.69848922   0.24120638   -2.3355521    1.6370629   439061 
  558000    1.0917273   -2.3356613   -2.3356613  -0.69807405   0.24569732   -2.3356613    1.6375872   439061 
  559000    1.0915181    -2.336531    -2.336531  -0.69925755   0.24786398    -2.336531    1.6372735   439061 
  560000    1.0933946   -2.3381114   -2.3381114  -0.69802321    0.2470027   -2.3381114    1.6400882   439061 
  561000    1.0927599   -2.3376927   -2.3376927  -0.69855654   0.24458544   -2.3376927    1.6391361   439061 
  562000    1.0933784   -2.3404296   -2.3404296  -0.70036572   0.24332696   -2.3404296    1.6400639   439061 
  563000     1.089236   -2.3375815   -2.3375815  -0.70373113   0.24254781   -2.3375815    1.6338503   439061 
  564000    1.0904771   -2.3383624   -2.3383624  -0.70265056   0.24233271   -2.3383624    1.6357119   439061 
  565000    1.0913745   -2.3394136   -2.3394136  -0.70235555   0.23729041   -2.3394136    1.6370581   439061 
  566000     1.089669   -2.3367595   -2.3367595  -0.70225971   0.24458506   -2.3367595    1.6344998   439061 
  567000    1.0902351   -2.3361469   -2.3361469  -0.70079797   0.24584582   -2.3361469    1.6353489   439061 
  568000    1.0905187   -2.3376221   -2.3376221  -0.70184781   0.24479481   -2.3376221    1.6357743   439061 
  569000    1.0914328   -2.3398217   -2.3398217   -0.7026762   0.23948153   -2.3398217    1.6371455   439061 
  570000    1.0899888   -2.3392652   -2.3392652  -0.70428568    0.2407581   -2.3392652    1.6349795   439061 
  571000     1.090319   -2.3403707   -2.3403707  -0.70489586   0.23850124   -2.3403707    1.6354748   439061 
  572000    1.0889672   -2.3374265   -2.3374265  -0.70397942   0.23809463   -2.3374265    1.6334471   439061 
  573000    1.0899093    -2.339092    -2.339092  -0.70423183   0.24331469    -2.339092    1.6348602   439061 
  574000    1.0888158   -2.3378471   -2.3378471  -0.70462706   0.24267459   -2.3378471      1.63322   439061 
  575000    1.0906103   -2.3389317   -2.3389317   -0.7030199   0.24499727   -2.3389317    1.6359118   439061 
  576000    1.0897682   -2.3376893   -2.3376893  -0.70304078   0.24188991   -2.3376893    1.6346486   439061 
  577000    1.0889099   -2.3379707   -2.3379707  -0.70460958   0.24193707   -2.3379707    1.6333612   439061 
  578000    1.0899622   -2.3389873   -2.3389873  -0.70404769   0.24858166   -2.3389873    1.6349396   439061 
  579000    1.0889385   -2.3375133   -2.3375133   -0.7041093   0.24222041   -2.3375133     1.633404   439061 
  580000    1.0887943   -2.3372761   -2.3372761   -0.7040884   0.24523437   -2.3372761    1.6331877   439061 
  581000    1.0900726   -2.3399804   -2.3399804  -0.70487533   0.23704479   -2.3399804    1.6351051   439061 
  582000    1.0883319   -2.3387832   -2.3387832  -0.70628909   0.24018023   -2.3387832    1.6324941   439061 
  583000    1.0899742   -2.3400826   -2.3400826  -0.70512506   0.24015509   -2.3400826    1.6349576   439061 
  584000    1.0896175   -2.3403501   -2.3403501  -0.70592755   0.24337457   -2.3403501    1.6344225   439061 
  585000    1.0889631   -2.3390151   -2.3390151   -0.7055741    0.2381726   -2.3390151     1.633441   439061 
  586000    1.0886289   -2.3379117   -2.3379117  -0.70497209   0.24438277   -2.3379117    1.6329396   439061 
  587000     1.088475   -2.3384874   -2.3384874  -0.70577868   0.23699932   -2.3384874    1.6327088   439061 
  588000    1.0893791   -2.3404585   -2.3404585  -0.70639358   0.23467943   -2.3404585    1.6340649   439061 
  589000    1.0907829   -2.3409318   -2.3409318  -0.70476114   0.23470117   -2.3409318    1.6361707   439061 
  590000    1.0878061   -2.3361942   -2.3361942  -0.70448879   0.24544792   -2.3361942    1.6317054   439061 
  591000    1.0872684   -2.3367505   -2.3367505  -0.70585164   0.24231863   -2.3367505    1.6308989   439061 
  592000    1.0895844   -2.3391422   -2.3391422  -0.70476938   0.23905115   -2.3391422    1.6343728   439061 
  593000    1.0893945   -2.3381473   -2.3381473  -0.70405938   0.24666884   -2.3381473     1.634088   439061 
  594000    1.0890481   -2.3377637   -2.3377637  -0.70419531   0.23964353   -2.3377637    1.6335684   439061 
  595000    1.0896514   -2.3375035   -2.3375035  -0.70303009   0.24034801   -2.3375035    1.6344734   439061 
  596000    1.0900123   -2.3384859   -2.3384859   -0.7034711   0.24131649   -2.3384859    1.6350148   439061 
  597000    1.0907112   -2.3395886   -2.3395886  -0.70352553   0.23687477   -2.3395886     1.636063   439061 
  598000    1.0895366   -2.3375393   -2.3375393  -0.70323813   0.23669104   -2.3375393    1.6343011   439061 
  599000     1.087403   -2.3363695   -2.3363695  -0.70526869   0.24203057   -2.3363695    1.6311008   439061 
  600000    1.0880984   -2.3379661   -2.3379661   -0.7058223    0.2384771   -2.3379661    1.6321438   439061 
  601000    1.0878563   -2.3371191   -2.3371191   -0.7053384   0.23873172   -2.3371191    1.6317807   439061 
  602000    1.0870493   -2.3360593   -2.3360593  -0.70548902   0.24084224   -2.3360593    1.6305703   439061 
  603000     1.087477   -2.3380675   -2.3380675  -0.70685571    0.2403522   -2.3380675    1.6312117   439061 
  604000    1.0869227   -2.3389381   -2.3389381  -0.70855777   0.23801729   -2.3389381    1.6303803   439061 
  605000    1.0878843   -2.3411421   -2.3411421  -0.70931927   0.24076334   -2.3411421    1.6318228   439061 
  606000    1.0867303   -2.3387655   -2.3387655  -0.70867376   0.23937652   -2.3387655    1.6300917   439061 
  607000    1.0867184   -2.3387784   -2.3387784  -0.70870454   0.23897827   -2.3387784    1.6300738   439061 
  608000    1.0860947    -2.338119    -2.338119  -0.70898066   0.23751472    -2.338119    1.6291383   439061 
  609000    1.0862684   -2.3396827   -2.3396827  -0.71028378   0.23862093   -2.3396827     1.629399   439061 
  610000     1.085477   -2.3386052   -2.3386052  -0.71039349    0.2367173   -2.3386052    1.6282117   439061 
  611000    1.0871534   -2.3404684   -2.3404684  -0.70974198   0.23762454   -2.3404684    1.6307264   439061 
  612000    1.0867052   -2.3390754   -2.3390754  -0.70902123   0.24137878   -2.3390754    1.6300541   439061 
  613000    1.0884146   -2.3421419   -2.3421419  -0.70952382   0.23715139   -2.3421419    1.6326181   439061 
  614000    1.0895437    -2.342685    -2.342685  -0.70837316   0.24051361    -2.342685    1.6343118   439061 
  615000    1.0865093   -2.3370859   -2.3370859  -0.70732563   0.23929768   -2.3370859    1.6297603   439061 
  616000    1.0876566   -2.3386491   -2.3386491  -0.70716789     0.240892   -2.3386491    1.6314812   439061 
  617000    1.0890459   -2.3388961   -2.3388961  -0.70533099   0.24353759   -2.3388961    1.6335651   439061 
  618000    1.0889404    -2.340336    -2.340336  -0.70692911   0.24081796    -2.340336    1.6334069   439061 
  619000    1.0869857   -2.3376205   -2.3376205  -0.70714557   0.23888725   -2.3376205    1.6304749   439061 
  620000    1.0867474   -2.3376058   -2.3376058  -0.70748845   0.24108326   -2.3376058    1.6301173   439061 
  621000    1.0874777   -2.3390015   -2.3390015  -0.70778875   0.23645698   -2.3390015    1.6312128   439061 
  622000    1.0868169   -2.3375682   -2.3375682  -0.70734654   0.24329507   -2.3375682    1.6302217   439061 
  623000    1.0850655   -2.3372258   -2.3372258   -0.7096312   0.24168571   -2.3372258    1.6275946   439061 
  624000    1.0864808   -2.3390479   -2.3390479  -0.70933034   0.23755583   -2.3390479    1.6297175   439061 
  625000    1.0868588   -2.3397067   -2.3397067  -0.70942221   0.23685498   -2.3397067    1.6302845   439061 
  626000    1.0850704   -2.3371952   -2.3371952  -0.70959335   0.23693688   -2.3371952    1.6276018   439061 
  627000    1.0866603   -2.3393412   -2.3393412  -0.70935436   0.23495173   -2.3393412    1.6299868   439061 
  628000    1.0862787   -2.3397652   -2.3397652  -0.71035083   0.23931634   -2.3397652    1.6294143   439061 
  629000    1.0847195   -2.3381788   -2.3381788   -0.7111032    0.2360026   -2.3381788    1.6270756   439061 
  630000    1.0835319   -2.3367607   -2.3367607  -0.71146652   0.23492733   -2.3367607    1.6252942   439061 
  631000    1.0844369   -2.3365832   -2.3365832   -0.7099315   0.23623184   -2.3365832    1.6266517   439061 
  632000    1.0829227   -2.3355215   -2.3355215  -0.71114113   0.23758996   -2.3355215    1.6243804   439061 
  633000    1.0840152   -2.3386458   -2.3386458  -0.71262668   0.23653111   -2.3386458    1.6260191   439061 
  634000    1.0842625    -2.338136    -2.338136  -0.71174595   0.23484718    -2.338136    1.6263901   439061 
  635000    1.0836326   -2.3374957   -2.3374957  -0.71205043   0.23969403   -2.3374957    1.6254453   439061 
  636000     1.084449   -2.3374826   -2.3374826  -0.71081274   0.24108034   -2.3374826    1.6266698   439061 
  637000     1.085616    -2.340465    -2.340465   -0.7120448   0.23783855    -2.340465    1.6284202   439061 
  638000    1.0842455   -2.3381976   -2.3381976  -0.71183307   0.23891707   -2.3381976    1.6263646   439061 
  639000    1.0840057   -2.3380384   -2.3380384   -0.7120335   0.23346658   -2.3380384    1.6260049   439061 
  640000    1.0845885   -2.3383675   -2.3383675  -0.71148843   0.23564392   -2.3383675    1.6268791   439061 
  641000    1.0854603   -2.3406478   -2.3406478  -0.71246111   0.23730867   -2.3406478    1.6281867   439061 
  642000     1.086263   -2.3407707   -2.3407707  -0.71137987   0.23930659   -2.3407707    1.6293908   439061 
  643000    1.0845864    -2.338173    -2.338173  -0.71129715   0.24198697    -2.338173    1.6268759   439061 
  644000    1.0846327   -2.3397154   -2.3397154  -0.71277004   0.23515597   -2.3397154    1.6269454   439061 
  645000    1.0860601   -2.3412024   -2.3412024  -0.71211601   0.23792874   -2.3412024    1.6290864   439061 
  646000    1.0842886   -2.3402619   -2.3402619  -0.71383263   0.23723013   -2.3402619    1.6264292   439061 
  647000    1.0839021    -2.340702    -2.340702  -0.71485253   0.23711358    -2.340702    1.6258495   439061 
  648000      1.08452   -2.3409124   -2.3409124  -0.71413619   0.24037206   -2.3409124    1.6267762   439061 
  649000    1.0840854    -2.341904    -2.341904  -0.71577964   0.23762817    -2.341904    1.6261244   439061 
  650000    1.0834978   -2.3411929   -2.3411929  -0.71594984   0.23615105   -2.3411929     1.625243   439061 
  651000    1.0836236   -2.3410456   -2.3410456  -0.71561393   0.23260433   -2.3410456    1.6254317   439061 
  652000    1.0835025    -2.341609    -2.341609  -0.71635898   0.23270622    -2.341609      1.62525   439061 
  653000    1.0837284    -2.341006    -2.341006  -0.71541709   0.23741281    -2.341006     1.625589   439061 
  654000     1.082021   -2.3404251   -2.3404251  -0.71739733    0.2334008   -2.3404251    1.6230277   439061 
  655000    1.0826721   -2.3410714   -2.3410714  -0.71706697   0.23325784   -2.3410714    1.6240044   439061 
  656000    1.0813435    -2.338615    -2.338615  -0.71660344   0.24038564    -2.338615    1.6220116   439061 
  657000    1.0816521    -2.339325    -2.339325  -0.71685048   0.23032725    -2.339325    1.6224745   439061 
  658000    1.0819279   -2.3394829   -2.3394829  -0.71659469   0.23664612   -2.3394829    1.6228882   439061 
  659000     1.083174   -2.3428957   -2.3428957  -0.71813845   0.23340194   -2.3428957    1.6247572   439061 
  660000    1.0817336   -2.3406562   -2.3406562  -0.71805957   0.23002927   -2.3406562    1.6225966   439061 
  661000    1.0831037   -2.3409817   -2.3409817  -0.71632978    0.2358445   -2.3409817    1.6246519   439061 
  662000    1.0820889    -2.339943    -2.339943  -0.71681334   0.23259569    -2.339943    1.6231297   439061 
  663000    1.0807812    -2.337754    -2.337754  -0.71658595    0.2352317    -2.337754    1.6211681   439061 
  664000      1.08192   -2.3386273   -2.3386273  -0.71575102   0.23452023   -2.3386273    1.6228763   439061 
  665000    1.0823452   -2.3391002   -2.3391002  -0.71558604   0.23271935   -2.3391002    1.6235141   439061 
  666000    1.0820097   -2.3389304   -2.3389304  -0.71591953    0.2307713   -2.3389304    1.6230109   439061 
  667000    1.0818601    -2.338242    -2.338242  -0.71545555   0.22906944    -2.338242    1.6227864   439061 
  668000    1.0811458   -2.3370791   -2.3370791  -0.71536404   0.23267819   -2.3370791     1.621715   439061 
  669000    1.0814833   -2.3377094   -2.3377094  -0.71548812   0.23313811   -2.3377094    1.6222213   439061 
  670000    1.0820292   -2.3384799   -2.3384799  -0.71543976   0.23817086   -2.3384799    1.6230401   439061 
  671000    1.0821434   -2.3388845   -2.3388845  -0.71567308   0.23428666   -2.3388845    1.6232114   439061 
  672000    1.0823104    -2.338665    -2.338665  -0.71520311    0.2321736    -2.338665    1.6234619   439061 
  673000     1.081691   -2.3384301   -2.3384301  -0.71589728   0.23079698   -2.3384301    1.6225328   439061 
  674000    1.0805588   -2.3387199   -2.3387199   -0.7178853   0.23328633   -2.3387199    1.6208346   439061 
  675000    1.0806506    -2.338957    -2.338957  -0.71798473   0.23447527    -2.338957    1.6209722   439061 
  676000    1.0807641   -2.3395474   -2.3395474  -0.71840503   0.23295478   -2.3395474    1.6211424   439061 
  677000    1.0799784   -2.3390262   -2.3390262  -0.71906228   0.23328817   -2.3390262    1.6199639   439061 
  678000    1.0811486   -2.3404167   -2.3404167  -0.71869743   0.23447852   -2.3404167    1.6217193   439061 
  679000    1.0805458   -2.3395174   -2.3395174   -0.7187024   0.23026185   -2.3395174     1.620815   439061 
  680000    1.0801347   -2.3379593   -2.3379593  -0.71776088   0.22996024   -2.3379593    1.6201984   439061 
  681000    1.0812697   -2.3392289   -2.3392289  -0.71732814   0.23411805   -2.3392289    1.6219008   439061 
  682000    1.0811699   -2.3414604   -2.3414604  -0.71970922   0.23513445   -2.3414604    1.6217512   439061 
  683000    1.0803515   -2.3397225   -2.3397225  -0.71919902   0.23267601   -2.3397225    1.6205235   439061 
  684000    1.0804645   -2.3397182   -2.3397182  -0.71902524   0.23358885   -2.3397182     1.620693   439061 
  685000    1.0801801   -2.3394456   -2.3394456  -0.71917923   0.23112187   -2.3394456    1.6202664   439061 
  686000    1.0810872   -2.3415142   -2.3415142  -0.71988716   0.23082593   -2.3415142    1.6216271   439061 
  687000    1.0813274   -2.3414587   -2.3414587  -0.71947134   0.22720868   -2.3414587    1.6219874   439061 
  688000    1.0826592   -2.3437676   -2.3437676  -0.71978248   0.22871143   -2.3437676    1.6239851   439061 
  689000     1.080792   -2.3407701   -2.3407701  -0.71958584   0.22789689   -2.3407701    1.6211843   439061 
  690000    1.0796953   -2.3402173   -2.3402173  -0.72067805   0.23070088   -2.3402173    1.6195392   439061 
  691000    1.0805188   -2.3421836   -2.3421836  -0.72140912   0.22805256   -2.3421836    1.6207745   439061 
  692000    1.0797568   -2.3413252   -2.3413252  -0.72169372    0.2317047   -2.3413252    1.6196315   439061 
  693000    1.0786422    -2.339837    -2.339837  -0.72187738   0.23396804    -2.339837    1.6179596   439061 
  694000    1.0784909   -2.3400988   -2.3400988  -0.72236622   0.22967923   -2.3400988    1.6177326   439061 
  695000    1.0792291   -2.3404654   -2.3404654  -0.72162549   0.23474883   -2.3404654    1.6188399   439061 
  696000    1.0783392   -2.3388259   -2.3388259  -0.72132083   0.23553766   -2.3388259    1.6175051   439061 
  697000    1.0805135   -2.3407809   -2.3407809  -0.72001436   0.23162382   -2.3407809    1.6207666   439061 
  698000    1.0789412   -2.3392827   -2.3392827  -0.72087465   0.23025814   -2.3392827    1.6184081   439061 
  699000    1.0794641   -2.3417924   -2.3417924  -0.72259994   0.22723368   -2.3417924    1.6191925   439061 
  700000    1.0772426   -2.3382307   -2.3382307  -0.72237054   0.23160665   -2.3382307    1.6158602   439061 
  701000    1.0790419   -2.3392131   -2.3392131  -0.72065398   0.23412074   -2.3392131    1.6185591   439061 
  702000    1.0792185   -2.3395965   -2.3395965  -0.72077236   0.23381808   -2.3395965    1.6188241   439061 
  703000    1.0785945   -2.3389593   -2.3389593  -0.72107129   0.22903886   -2.3389593    1.6178881   439061 
  704000    1.0780805   -2.3394498   -2.3394498  -0.72233269   0.23055015   -2.3394498    1.6171171   439061 
[...]
 4832000    1.0157606   -2.3447432   -2.3447432  -0.82110577   0.15799884   -2.3447432    1.5236374   439061 
 4833000    1.0141162   -2.3419327   -2.3419327   -0.8207619   0.16134284   -2.3419327    1.5211708   439061 
 4834000    1.0164151   -2.3440942   -2.3440942  -0.81947503   0.15555242   -2.3440942    1.5246192   439061 
 4835000    1.0126054   -2.3387146   -2.3387146  -0.81980995   0.16052935   -2.3387146    1.5189047   439061 
 4836000    1.0142868   -2.3426043   -2.3426043  -0.82117755   0.16170842   -2.3426043    1.5214267   439061 
 4837000    1.0135223   -2.3418425   -2.3418425  -0.82156253    0.1573678   -2.3418425      1.52028   439061 
 4838000    1.0143058   -2.3426708   -2.3426708  -0.82121558   0.15473295   -2.3426708    1.5214553   439061 
 4839000    1.0139698   -2.3414409   -2.3414409  -0.82048967   0.15744712   -2.3414409    1.5209512   439061 
 4840000    1.0137619    -2.341944    -2.341944  -0.82130463   0.15861483    -2.341944    1.5206394   439061 
 4841000    1.0136455   -2.3416348   -2.3416348  -0.82116997    0.1607867   -2.3416348    1.5204648   439061 
 4842000    1.0138908   -2.3429255   -2.3429255  -0.82209279   0.15705598   -2.3429255    1.5208327   439061 
 4843000      1.01499   -2.3441285   -2.3441285  -0.82164706   0.15899838   -2.3441285    1.5224815   439061 
 4844000    1.0139092   -2.3426843   -2.3426843   -0.8218239   0.15821319   -2.3426843    1.5208604   439061 
 4845000    1.0134922   -2.3427331   -2.3427331  -0.82249824   0.15867798   -2.3427331    1.5202349   439061 
 4846000    1.0146592   -2.3433092   -2.3433092  -0.82132387   0.15978421   -2.3433092    1.5219853   439061 
 4847000    1.0137579   -2.3424148   -2.3424148  -0.82178143   0.15835242   -2.3424148    1.5206333   439061 
 4848000    1.0143686   -2.3424112   -2.3424112  -0.82086169   0.16538398   -2.3424112    1.5215495   439061 
 4849000    1.0147753   -2.3433293   -2.3433293  -0.82116972   0.16076182   -2.3433293    1.5221595   439061 
 4850000     1.013706   -2.3425123   -2.3425123  -0.82195669      0.16091   -2.3425123    1.5205556   439061 
 4851000    1.0134606   -2.3424512   -2.3424512   -0.8222637   0.15960781   -2.3424512    1.5201875   439061 
 4852000     1.012519   -2.3404812   -2.3404812  -0.82170611   0.15889808   -2.3404812    1.5187751   439061 
 4853000     1.014277   -2.3424055   -2.3424055  -0.82099347   0.16250002   -2.3424055    1.5214121   439061 
 4854000    1.0147388   -2.3426768   -2.3426768  -0.82057204   0.16039599   -2.3426768    1.5221048   439061 
 4855000    1.0129895   -2.3417204   -2.3417204  -0.82223962   0.16131641   -2.3417204    1.5194808   439061 
 4856000    1.0139483    -2.343187    -2.343187  -0.82226797    0.1584941    -2.343187     1.520919   439061 
 4857000    1.0139027   -2.3436018   -2.3436018  -0.82275116   0.16415652   -2.3436018    1.5208506   439061 
 4858000    1.0132489   -2.3428619   -2.3428619  -0.82299204   0.15549034   -2.3428619    1.5198698   439061 
 4859000    1.0139587   -2.3456812   -2.3456812  -0.82474659   0.15363015   -2.3456812    1.5209346   439061 
 4860000    1.0138017   -2.3446779   -2.3446779  -0.82397876    0.1590929   -2.3446779    1.5206992   439061 
 4861000    1.0135005   -2.3445528   -2.3445528  -0.82430549   0.15718547   -2.3445528    1.5202473   439061 
 4862000    1.0149389   -2.3462004   -2.3462004  -0.82379561   0.15871475   -2.3462004    1.5224048   439061 
 4863000    1.0134911   -2.3426242   -2.3426242  -0.82239093   0.15669668   -2.3426242    1.5202332   439061 
 4864000    1.0136821    -2.343211    -2.343211  -0.82269137   0.15473564    -2.343211    1.5205196   439061 
 4865000    1.0138995   -2.3434243   -2.3434243  -0.82257845   0.15708189   -2.3434243    1.5208458   439061 
 4866000    1.0136064   -2.3434053   -2.3434053   -0.8229992   0.16003644   -2.3434053    1.5204061   439061 
 4867000    1.0155475   -2.3451883   -2.3451883  -0.82187047   0.15774921   -2.3451883    1.5233178   439061 
 4868000    1.0117836   -2.3399644   -2.3399644  -0.82229241    0.1604825   -2.3399644     1.517672   439061 
 4869000    1.0151299     -2.34358     -2.34358  -0.82088862   0.16020409     -2.34358    1.5226913   439061 
 4870000    1.0134398   -2.3422606   -2.3422606  -0.82210439   0.15532205   -2.3422606    1.5201562   439061 
 4871000    1.0154157   -2.3446866   -2.3446866  -0.82156656   0.16107704   -2.3446866    1.5231201   439061 
 4872000    1.0134031   -2.3406283   -2.3406283  -0.82052715   0.16101418   -2.3406283    1.5201011   439061 
 4873000    1.0151377   -2.3437225   -2.3437225  -0.82101942   0.15888157   -2.3437225    1.5227031   439061 
 4874000      1.01552   -2.3431755   -2.3431755  -0.81989899   0.15500835   -2.3431755    1.5232766   439061 
 4875000    1.0154146   -2.3432905   -2.3432905  -0.82017203   0.15136962   -2.3432905    1.5231185   439061 
 4876000    1.0164467   -2.3436793   -2.3436793  -0.81901268   0.15087961   -2.3436793    1.5246666   439061 
 4877000    1.0143112   -2.3420041   -2.3420041  -0.82054067   0.15759481   -2.3420041    1.5214634   439061 
 4878000    1.0146833   -2.3420452   -2.3420452  -0.82002367   0.15958331   -2.3420452    1.5220215   439061 
 4879000    1.0141286   -2.3411349   -2.3411349  -0.81994539   0.15556058   -2.3411349    1.5211895   439061 
 4880000    1.0140835   -2.3402407   -2.3402407  -0.81911895   0.15843907   -2.3402407    1.5211217   439061 
 4881000    1.0142392   -2.3403555   -2.3403555  -0.81900026   0.15998958   -2.3403555    1.5213553   439061 
 4882000    1.0138777   -2.3404458   -2.3404458  -0.81963275   0.15590576   -2.3404458     1.520813   439061 
 4883000    1.0139588   -2.3409129   -2.3409129  -0.81997813   0.15813852   -2.3409129    1.5209348   439061 
 4884000      1.01435   -2.3412265   -2.3412265  -0.81970503   0.15869418   -2.3412265    1.5215215   439061 
 4885000    1.0150186   -2.3413033   -2.3413033  -0.81877895   0.15723463   -2.3413033    1.5225244   439061 
 4886000    1.0147666   -2.3414083   -2.3414083  -0.81926189   0.16275348   -2.3414083    1.5221464   439061 
 4887000    1.0156378   -2.3427286   -2.3427286  -0.81927544    0.1619369   -2.3427286    1.5234532   439061 
 4888000    1.0149605   -2.3413805   -2.3413805  -0.81894326    0.1605003   -2.3413805    1.5224373   439061 
 4889000    1.0135991     -2.33966     -2.33966  -0.81926481   0.15551552     -2.33966    1.5203952   439061 
 4890000    1.0155105   -2.3430194   -2.3430194  -0.81975717   0.16116749   -2.3430194    1.5232623   439061 
 4891000    1.0150143   -2.3415735   -2.3415735  -0.81905555   0.16347384   -2.3415735    1.5225179   439061 
 4892000    1.0148787   -2.3407739   -2.3407739  -0.81845923   0.15553358   -2.3407739    1.5223147   439061 
 4893000    1.0142354    -2.340083    -2.340083  -0.81873338   0.15508014    -2.340083    1.5213496   439061 
 4894000    1.0147799   -2.3408097   -2.3408097  -0.81864334    0.1600043   -2.3408097    1.5221664   439061 
 4895000    1.0139295   -2.3398936   -2.3398936  -0.81900286   0.16410289   -2.3398936    1.5208907   439061 
 4896000    1.0149459    -2.340244    -2.340244  -0.81782865   0.16159811    -2.340244    1.5224154   439061 
 4897000    1.0150843    -2.340662    -2.340662  -0.81803899    0.1529564    -2.340662     1.522623   439061 
 4898000    1.0169974   -2.3420579   -2.3420579  -0.81656526   0.16062938   -2.3420579    1.5254927   439061 
 4899000    1.0148601   -2.3386349   -2.3386349  -0.81634822   0.15701775   -2.3386349    1.5222867   439061 
 4900000    1.0165461    -2.341804    -2.341804  -0.81698842   0.16169613    -2.341804    1.5248156   439061 
 4901000    1.0156993    -2.339568    -2.339568  -0.81602243   0.16037032    -2.339568    1.5235455   439061 
 4902000    1.0164522   -2.3417464   -2.3417464  -0.81707162   0.16084909   -2.3417464    1.5246748   439061 
 4903000    1.0167067   -2.3428385   -2.3428385  -0.81778199   0.16000183   -2.3428385    1.5250565   439061 
 4904000    1.0156472   -2.3411924   -2.3411924   -0.8177251   0.16290395   -2.3411924    1.5234673   439061 
 4905000    1.0158102   -2.3420574   -2.3420574  -0.81834557   0.15231063   -2.3420574    1.5237118   439061 
 4906000     1.016424   -2.3428031   -2.3428031   -0.8181706   0.16139989   -2.3428031    1.5246325   439061 
 4907000    1.0170395   -2.3410133   -2.3410133   -0.8154575   0.16047029   -2.3410133    1.5255558   439061 
 4908000    1.0159487   -2.3399399   -2.3399399  -0.81602032   0.16382528   -2.3399399    1.5239195   439061 
 4909000     1.016198   -2.3409537   -2.3409537   -0.8166602   0.15885739   -2.3409537    1.5242935   439061 
 4910000    1.0171417    -2.342525    -2.342525  -0.81681594   0.15581654    -2.342525    1.5257091   439061 
 4911000    1.0168339   -2.3424046   -2.3424046  -0.81715718    0.1619762   -2.3424046    1.5252474   439061 
 4912000    1.0141475    -2.339065    -2.339065  -0.81784724   0.15893371    -2.339065    1.5212178   439061 
 4913000    1.0136163   -2.3391336   -2.3391336  -0.81871262   0.16143538   -2.3391336     1.520421   439061 
 4914000    1.0145894   -2.3412222   -2.3412222  -0.81934147   0.15976745   -2.3412222    1.5218807   439061 
 4915000    1.0150785   -2.3415743   -2.3415743  -0.81896003   0.15559693   -2.3415743    1.5226143   439061 
 4916000    1.0144247   -2.3395215   -2.3395215    -0.817888   0.16045628   -2.3395215    1.5216336   439061 
 4917000    1.0130603   -2.3378466   -2.3378466  -0.81825953   0.15805536   -2.3378466    1.5195871   439061 
 4918000    1.0143643   -2.3400069   -2.3400069  -0.81846388   0.16054522   -2.3400069     1.521543   439061 
 4919000    1.0154525   -2.3410953   -2.3410953  -0.81791996   0.15794631   -2.3410953    1.5231753   439061 
 4920000    1.0146916   -2.3397722   -2.3397722   -0.8177383   0.15865949   -2.3397722    1.5220339   439061 
 4921000     1.016781   -2.3425929   -2.3425929  -0.81742489   0.16193837   -2.3425929     1.525168   439061 
 4922000    1.0158115   -2.3411007   -2.3411007  -0.81738696   0.15926541   -2.3411007    1.5237138   439061 
 4923000    1.0160282   -2.3413438   -2.3413438  -0.81730494   0.16285631   -2.3413438    1.5240388   439061 
 4924000    1.0143736   -2.3403046   -2.3403046  -0.81874775   0.16028094   -2.3403046    1.5215569   439061 
 4925000    1.0147666   -2.3417841   -2.3417841  -0.81963772     0.157092   -2.3417841    1.5221464   439061 
 4926000    1.0155321   -2.3418926   -2.3418926  -0.81859789   0.16362755   -2.3418926    1.5232947   439061 
 4927000    1.0148278   -2.3418636   -2.3418636  -0.81962536   0.15630128   -2.3418636    1.5222383   439061 
 4928000    1.0145035   -2.3417322   -2.3417322  -0.81998045   0.16044133   -2.3417322    1.5217518   439061 
 4929000     1.011261   -2.3375056   -2.3375056  -0.82061748   0.16227891   -2.3375056    1.5168881   439061 
 4930000    1.0124235   -2.3391254   -2.3391254   -0.8204935   0.15460259   -2.3391254    1.5186319   439061 
 4931000    1.0143567   -2.3417124   -2.3417124   -0.8201808   0.15553951   -2.3417124    1.5215316   439061 
 4932000     1.014239   -2.3408474   -2.3408474  -0.81949237   0.15682192   -2.3408474     1.521355   439061 
 4933000    1.0148268   -2.3418306   -2.3418306  -0.81959391    0.1552888   -2.3418306    1.5222367   439061 
 4934000    1.0155718   -2.3427697   -2.3427697  -0.81941543   0.15651878   -2.3427697    1.5233543   439061 
 4935000    1.0160125   -2.3435488   -2.3435488  -0.81953353   0.15628535   -2.3435488    1.5240153   439061 
 4936000     1.013741   -2.3412466   -2.3412466  -0.82063855   0.16124928   -2.3412466    1.5206081   439061 
 4937000    1.0155011   -2.3438499   -2.3438499  -0.82060164   0.15915724   -2.3438499    1.5232482   439061 
 4938000    1.0145241   -2.3416858   -2.3416858  -0.81990321   0.16248085   -2.3416858    1.5217826   439061 
 4939000     1.015485   -2.3428403   -2.3428403  -0.81961628   0.15811767   -2.3428403     1.523224   439061 
 4940000    1.0133619   -2.3402974   -2.3402974  -0.82025798   0.16494088   -2.3402974    1.5200395   439061 
 4941000    1.0138388   -2.3421952   -2.3421952  -0.82144048   0.16439816   -2.3421952    1.5207547   439061 
 4942000    1.0163803   -2.3453232   -2.3453232  -0.82075625   0.16264473   -2.3453232     1.524567   439061 
 4943000    1.0132226   -2.3408551   -2.3408551  -0.82102466   0.16299249   -2.3408551    1.5198305   439061 
 4944000     1.014531   -2.3422972   -2.3422972  -0.82050425   0.16456924   -2.3422972     1.521793   439061 
 4945000    1.0163497   -2.3445082   -2.3445082  -0.81998702   0.15777275   -2.3445082    1.5245211   439061 
 4946000    1.0159601   -2.3441011   -2.3441011  -0.82016445   0.15599469   -2.3441011    1.5239366   439061 
 4947000    1.0153849   -2.3436242   -2.3436242  -0.82055038   0.16090761   -2.3436242    1.5230739   439061 
 4948000    1.0162434   -2.3442443   -2.3442443  -0.81988277   0.15784382   -2.3442443    1.5243616   439061 
 4949000    1.0166813   -2.3450834   -2.3450834  -0.82006498   0.16125568   -2.3450834    1.5250184   439061 
 4950000    1.0148397   -2.3423505   -2.3423505  -0.82009444   0.16313207   -2.3423505    1.5222561   439061 
 4951000    1.0150155   -2.3432063   -2.3432063   -0.8206865   0.15735966   -2.3432063    1.5225198   439061 
 4952000    1.0145231   -2.3430959   -2.3430959  -0.82131473   0.15868822   -2.3430959    1.5217812   439061 
 4953000    1.0157033   -2.3439101   -2.3439101  -0.82035867   0.15723336   -2.3439101    1.5235514   439061 
 4954000    1.0139305   -2.3414892   -2.3414892  -0.82059685   0.15946217   -2.3414892    1.5208924   439061 
 4955000    1.0127912   -2.3413394   -2.3413394  -0.82215605   0.16164327   -2.3413394    1.5191833   439061 
 4956000    1.0140863   -2.3427748   -2.3427748  -0.82164879    0.1528796   -2.3427748     1.521126   439061 
 4957000    1.0142816   -2.3423895   -2.3423895  -0.82097053   0.16319467   -2.3423895     1.521419   439061 
 4958000    1.0146842   -2.3432787   -2.3432787  -0.82125582   0.15435907   -2.3432787    1.5220229   439061 
 4959000    1.0142833   -2.3420586   -2.3420586   -0.8206371   0.16078548   -2.3420586    1.5214215   439061 
 4960000    1.0141395   -2.3412797   -2.3412797  -0.82007392   0.15489282   -2.3412797    1.5212058   439061 
 4961000     1.013577    -2.341484    -2.341484  -0.82112193   0.15671979    -2.341484    1.5203621   439061 
 4962000    1.0128844   -2.3403934   -2.3403934  -0.82107025   0.15698242   -2.3403934    1.5193231   439061 
 4963000    1.0148819   -2.3425389   -2.3425389  -0.82021956   0.15866741   -2.3425389    1.5223193   439061 
 4964000    1.0150271   -2.3419431   -2.3419431  -0.81940588   0.15733773   -2.3419431    1.5225372   439061 
 4965000    1.0141221   -2.3410213   -2.3410213  -0.81984153   0.16440351   -2.3410213    1.5211797   439061 
 4966000    1.0150313   -2.3413609   -2.3413609  -0.81881749    0.1615599   -2.3413609    1.5225435   439061 
 4967000    1.0165913   -2.3430524   -2.3430524  -0.81816898   0.15639403   -2.3430524    1.5248835   439061 
 4968000    1.0147609   -2.3399146   -2.3399146  -0.81777671   0.16040947   -2.3399146    1.5221379   439061 
 4969000     1.015249    -2.339901    -2.339901  -0.81703096    0.1575064    -2.339901    1.5228701   439061 
 4970000    1.0157276   -2.3401793   -2.3401793  -0.81659141   0.15868395   -2.3401793    1.5235879   439061 
 4971000    1.0152918   -2.3397875   -2.3397875  -0.81685329   0.16281933   -2.3397875    1.5229342   439061 
 4972000     1.015737   -2.3406281   -2.3406281  -0.81702607   0.15847861   -2.3406281     1.523602   439061 
 4973000    1.0140561   -2.3392874   -2.3392874  -0.81820674   0.16066076   -2.3392874    1.5210807   439061 
 4974000    1.0155666   -2.3410831   -2.3410831  -0.81773669   0.16151144   -2.3410831    1.5233464   439061 
 4975000     1.015643   -2.3406045   -2.3406045  -0.81714354   0.16376317   -2.3406045     1.523461   439061 
 4976000    1.0149383   -2.3398711   -2.3398711  -0.81746711   0.15931973   -2.3398711     1.522404   439061 
 4977000    1.0154549   -2.3411955   -2.3411955  -0.81801659   0.15774133   -2.3411955    1.5231789   439061 
 4978000    1.0155452   -2.3403044   -2.3403044  -0.81699004   0.15967669   -2.3403044    1.5233143   439061 
 4979000    1.0152198    -2.340233    -2.340233  -0.81740669    0.1631587    -2.340233    1.5228263   439061 
 4980000    1.0159648   -2.3414568   -2.3414568   -0.8175131   0.15845063   -2.3414568    1.5239437   439061 
 4981000    1.0137937   -2.3392971   -2.3392971  -0.81861009   0.15957036   -2.3392971     1.520687   439061 
 4982000    1.0146373   -2.3401512   -2.3401512  -0.81819862   0.15553186   -2.3401512    1.5219525   439061 
 4983000    1.0139807   -2.3398536   -2.3398536    -0.818886   0.15976281   -2.3398536    1.5209676   439061 
 4984000     1.015013   -2.3425583   -2.3425583  -0.82004222    0.1667688   -2.3425583    1.5225161   439061 
 4985000    1.0141079   -2.3425131   -2.3425131  -0.82135476   0.15841887   -2.3425131    1.5211583   439061 
 4986000    1.0131647   -2.3405709   -2.3405709  -0.82082734   0.15829063   -2.3405709    1.5197435   439061 
 4987000    1.0131609    -2.339319    -2.339319   -0.8195811   0.15492532    -2.339319    1.5197379   439061 
 4988000    1.0142527   -2.3413326   -2.3413326  -0.81995704    0.1572237   -2.3413326    1.5213755   439061 
 4989000    1.0154724     -2.34302     -2.34302  -0.81981492   0.15897069     -2.34302    1.5232051   439061 
 4990000    1.0143273    -2.342125    -2.342125  -0.82063752   0.15457962    -2.342125    1.5214874   439061 
 4991000    1.0145547   -2.3426525   -2.3426525  -0.82082394   0.15544035   -2.3426525    1.5218285   439061 
 4992000    1.0143891   -2.3423311   -2.3423311  -0.82075088   0.15880688   -2.3423311    1.5215803   439061 
 4993000     1.014443   -2.3425945   -2.3425945  -0.82093359   0.15705943   -2.3425945     1.521661   439061 
 4994000    1.0142512   -2.3427493   -2.3427493  -0.82137599   0.15790476   -2.3427493    1.5213733   439061 
 4995000    1.0148734   -2.3455151   -2.3455151  -0.82320841   0.15629703   -2.3455151    1.5223067   439061 
 4996000    1.0139595    -2.342759    -2.342759  -0.82182331    0.1577124    -2.342759    1.5209357   439061 
 4997000    1.0140924   -2.3430427   -2.3430427   -0.8219076   0.15818146   -2.3430427    1.5211351   439061 
 4998000    1.0137381   -2.3430807   -2.3430807  -0.82247697   0.16004735   -2.3430807    1.5206037   439061 
 4999000    1.0143687    -2.343825    -2.343825  -0.82227541   0.15931491    -2.343825    1.5215496   439061 
 5000000       1.0139   -2.3433104   -2.3433104  -0.82246386   0.16133339   -2.3433104    1.5208465   439061 
Loop time of 7808.29 on 192 procs for 5000000 steps with 439061 atoms

Performance: 276629.046 tau/day, 640.345 timesteps/s
89.3% CPU use with 192 MPI tasks x 1 OpenMP threads

MPI task timing breakdown:
Section |  min time  |  avg time  |  max time  |%varavg|  %CPU | %total
-----------------------------------------------------------------------
Pair    | 2770.6     | 3524.9     | 4139.2     | 635.1 |  90.8 | 45.14
Bond    | 3.225      | 3.3731     | 3.5206     |   3.0 | 100.0 |  0.04
Neigh   | 1237.3     | 1416.8     | 1569.4     | 220.3 |  98.1 | 18.15
Comm    | 1098.8     | 2154.1     | 2984.7     |1005.9 |  85.6 | 27.59
Output  | 287.63     | 291.71     | 291.75     |   1.7 |  67.7 |  3.74
Modify  | 143.5      | 220.1      | 638.89     |1036.1 |  88.8 |  2.82
Other   |            | 197.3      |            |       |       |  2.53

Nlocal:        2286.78 ave        2429 max        2130 min
Histogram: 4 5 11 22 44 45 27 19 7 8
Nghost:        3044.99 ave        3386 max        2372 min
Histogram: 9 15 16 8 0 1 15 38 54 36
Neighs:        50953.0 ave       59698 max       37586 min
Histogram: 4 7 8 13 25 27 39 34 21 14

Total # of neighbors = 9782969
Ave neighs/atom = 22.281571
Ave special neighs/atom = 0.0000000
Neighbor list builds = 500000
Dangerous builds = 495000
System init for write_data ...
Total wall time: 2:10:13
