LAMMPS (3 Mar 2020)
  using 1 OpenMP thread(s) per MPI task
Created orthogonal box = (0 0 0) to (40 40 40)
  2 by 2 by 4 MPI processor grid
Created 15000 atoms
  create_atoms CPU = 0.004289 secs
WARNING: Ignoring 'compress yes' for molecular system (src/delete_atoms.cpp:125)
Deleted 1941 atoms, new total = 13059
  orthogonal box = (0 0 0) to (40 40 40)
  2 by 2 by 4 MPI processor grid
  reading atoms ...
  1143 atoms
  0 = max # of 1-2 neighbors
  0 = max # of 1-3 neighbors
  0 = max # of 1-4 neighbors
  1 = max # of special neighbors
  special bonds CPU = 0.0270158 secs
  read_data CPU = 0.0378907 secs
1143 atoms in group cube
13059 atoms in group solvent
WARNING: Replicating in a non-periodic dimension (src/replicate.cpp:72)
  orthogonal box = (0 0 0) to (160 160 160)
  2 by 2 by 4 MPI processor grid
  908928 atoms
  0 = max # of 1-2 neighbors
  0 = max # of 1-3 neighbors
  0 = max # of 1-4 neighbors
  1 = max # of special neighbors
  special bonds CPU = 0.0339947 secs
  replicate CPU = 0.0860074 secs
  orthogonal box = (0 0 0) to (160 160 320)
  2 by 2 by 4 MPI processor grid
  0 = max # of 1-2 neighbors
  0 = max # of 1-3 neighbors
  0 = max # of 1-4 neighbors
  1 = max # of special neighbors
  special bonds CPU = 0.0333885 secs
  read_data CPU = 0.106178 secs
Resetting atom IDs ...
Neighbor list info ...
  update every 1 steps, delay 10 steps, check yes
  max neighbors/atom: 2000, page size: 100000
  master list distance cutoff = 4.8
  ghost atom cutoff = 4.8
  binsize = 2.4, bins = 67 67 134
  1 neighbor lists, perpetual/occasional/extra = 1 0 0
  (1) pair lj/cut, perpetual
      attributes: half, newton on
      pair build: half/bin/newton
      stencil: half/bin/3d/newton
      bin: standard
  0 = max # of 1-2 neighbors
  0 = max # of 1-3 neighbors
  0 = max # of 1-4 neighbors
  1 = max # of special neighbors
  special bonds CPU = 0.083283 secs
Neighbor list info ...
  update every 1 steps, delay 10 steps, check yes
  max neighbors/atom: 2000, page size: 100000
  master list distance cutoff = 4.8
  ghost atom cutoff = 8.7
  binsize = 2.4, bins = 67 67 134
  2 neighbor lists, perpetual/occasional/extra = 1 1 0
  (1) command delete_atoms, occasional
      attributes: full, newton on
      pair build: full/bin
      stencil: full/bin/3d
      bin: standard
  (2) pair lj/cut, perpetual
      attributes: half, newton on
      pair build: half/bin/newton
      stencil: half/bin/3d/newton
      bin: standard
WARNING: Delete_atoms cutoff > minimum neighbor cutoff (src/delete_atoms.cpp:338)
WARNING: Ignoring 'compress yes' for molecular system (src/delete_atoms.cpp:125)
Deleted 302364 atoms, new total = 606564
Neighbor list info ...
  update every 1 steps, delay 10 steps, check yes
  max neighbors/atom: 2000, page size: 100000
  master list distance cutoff = 4.8
  ghost atom cutoff = 8.7
  binsize = 2.4, bins = 67 67 134
  1 neighbor lists, perpetual/occasional/extra = 1 0 0
  (1) pair lj/cut, perpetual
      attributes: half, newton on
      pair build: half/bin/newton
      stencil: half/bin/3d/newton
      bin: standard
  rebalancing time: 0.0512462 seconds
  iteration count = 6
  initial/final max load/proc = 76292 39255
  initial/final imbalance factor = 2.01244 1.03547
  x cuts: 0 0.5 1
  y cuts: 0 0.5 1
  z cuts: 0 0.128906 0.253906 0.382812 1
WARNING: Ignoring 'compress yes' for molecular system (src/delete_atoms.cpp:125)
Deleted 4172 atoms, new total = 602392
  create bodies CPU = 0.00730904 secs
64 rigid bodies with 73152 atoms
  6.9282 = max distance from body owner to body atom
New timer settings: style=full  mode=nosync  timeout=off
Per MPI rank memory allocation (min/avg/max) = 59.77 | 93.01 | 122.4 Mbytes
Step Temp E_pair E_vdwl TotEng Press PotEng KinEng Volume 
       0    1.0000095  -0.70637589  -0.70637589     0.611799  0.014884337  -0.70637589    1.3181749      8192000 
     100    1.0294836  -0.74954112  -0.74954112   0.60748548  0.031494523  -0.74954112    1.3570266      8192000 
     200     1.066356  -0.81982535  -0.81982535   0.58580506  0.038914388  -0.81982535    1.4056304      8192000 
     300    1.0680455  -0.85730979  -0.85730979   0.55054769  0.036619214  -0.85730979    1.4078575      8192000 
     400    1.0559269  -0.88071059  -0.88071059   0.51117254  0.034399657  -0.88071059    1.3918831      8192000 
     500    1.0402701  -0.89826006  -0.89826006   0.47298497  0.032628748  -0.89826006     1.371245      8192000 
     600    1.0266907  -0.91489723  -0.91489723   0.43844792  0.030842341  -0.91489723    1.3533452      8192000 
     700    1.0152273  -0.92994265  -0.92994265   0.40829187  0.030052295  -0.92994265    1.3382345      8192000 
     800     1.006624  -0.94358779  -0.94358779   0.38330618  0.029239878  -0.94358779     1.326894      8192000 
     900    1.0001179  -0.95401766  -0.95401766   0.36430012  0.028251681  -0.95401766    1.3183178      8192000 
    1000   0.99921901  -0.96556965  -0.96556965    0.3515633  0.027849032  -0.96556965     1.317133      8192000 
    1100   0.99922651  -0.97461883  -0.97461883   0.34252401  0.027733333  -0.97461883    1.3171428      8192000 
    1200   0.99947364  -0.98180042  -0.98180042   0.33566819  0.027476919  -0.98180042    1.3174686      8192000 
    1300    1.0001761  -0.98863443  -0.98863443    0.3297601  0.027439867  -0.98863443    1.3183945      8192000 
    1400    1.0002666  -0.99480957  -0.99480957   0.32370428   0.02695176  -0.99480957    1.3185139      8192000 
    1500    1.0001045   -1.0005441   -1.0005441   0.31775605  0.026599069   -1.0005441    1.3183002      8192000 
    1600    1.0000308    -1.006065    -1.006065   0.31213804    0.0268875    -1.006065     1.318203      8192000 
    1700    1.0003004   -1.0124392   -1.0124392   0.30611918  0.026762587   -1.0124392    1.3185584      8192000 
    1800    0.9992384   -1.0169807   -1.0169807   0.30017783  0.025966665   -1.0169807    1.3171585      8192000 
    1900    0.9996073   -1.0205483   -1.0205483   0.29709653  0.025939944   -1.0205483    1.3176448      8192000 
    2000    1.0011338   -1.0241416   -1.0241416   0.29551533  0.026356603   -1.0241416    1.3196569      8192000 
    2100    1.0007916   -1.0277146   -1.0277146    0.2914913  0.027615943   -1.0277146    1.3192059      8192000 
    2200   0.99885122   -1.0313962   -1.0313962   0.28525193  0.027571673   -1.0313962    1.3166481      8192000 
    2300   0.99851367   -1.0350264   -1.0350264   0.28117678  0.027620002   -1.0350264    1.3162032      8192000 
    2400    1.0004393   -1.0382334   -1.0382334    0.2805081  0.027738061   -1.0382334    1.3187415      8192000 
    2500    1.0021184   -1.0425154   -1.0425154   0.27843941  0.025250488   -1.0425154    1.3209548      8192000 
    2600   0.99937793   -1.0452071   -1.0452071   0.27213535  0.027018201   -1.0452071    1.3173424      8192000 
    2700   0.99768152   -1.0479143   -1.0479143   0.26719204  0.027096577   -1.0479143    1.3151063      8192000 
    2800     1.000038   -1.0511023   -1.0511023   0.26711025  0.026716517   -1.0511023    1.3182125      8192000 
    2900     1.002104   -1.0537661   -1.0537661    0.2671697  0.027315251   -1.0537661    1.3209358      8192000 
    3000     1.000757   -1.0566927   -1.0566927   0.26246763  0.026653642   -1.0566927    1.3191603      8192000 
    3100    0.9982381   -1.0592919   -1.0592919   0.25654804  0.026297813   -1.0592919      1.31584      8192000 
    3200   0.99915448   -1.0619381   -1.0619381   0.25510978   0.02747443   -1.0619381    1.3170479      8192000 
    3300    1.0017678   -1.0641019   -1.0641019   0.25639073  0.026595342   -1.0641019    1.3204926      8192000 
    3400    1.0012864   -1.0658994   -1.0658994   0.25395868  0.026564401   -1.0658994    1.3198581      8192000 
    3500   0.99878592   -1.0682541   -1.0682541   0.24830796  0.026598053   -1.0682541    1.3165621      8192000 
    3600   0.99845156   -1.0710759   -1.0710759   0.24504541  0.026144462   -1.0710759    1.3161213      8192000 
    3700     1.000472   -1.0735036   -1.0735036   0.24528093  0.027252527   -1.0735036    1.3187846      8192000 
    3800    1.0013877   -1.0752222   -1.0752222    0.2447694  0.026731333   -1.0752222    1.3199916      8192000 
    3900   0.99987137   -1.0767967   -1.0767967   0.24119619  0.026819073   -1.0767967    1.3179929      8192000 
    4000   0.99863138   -1.0790265   -1.0790265   0.23733182  0.026649343   -1.0790265    1.3163584      8192000 
    4100   0.99981347    -1.082539    -1.082539    0.2353775  0.025612709    -1.082539    1.3179165      8192000 
    4200    1.0006078   -1.0848806   -1.0848806   0.23408301  0.026470444   -1.0848806    1.3189636      8192000 
    4300    1.0004038   -1.0862603   -1.0862603    0.2324344  0.026637717   -1.0862603    1.3186947      8192000 
    4400   0.99911175   -1.0871241   -1.0871241   0.22986744  0.027160392   -1.0871241    1.3169916      8192000 
    4500   0.99995011   -1.0902592   -1.0902592    0.2278375  0.026172057   -1.0902592    1.3180967      8192000 
    4600    1.0000604   -1.0924931   -1.0924931   0.22574893  0.026482341   -1.0924931    1.3182421      8192000 
    4700      1.00027   -1.0953874   -1.0953874   0.22313094  0.026190686   -1.0953874    1.3185184      8192000 
    4800    1.0002231   -1.0982178   -1.0982178   0.22023861  0.026464652   -1.0982178    1.3184565      8192000 
    4900    1.0000919   -1.1009416   -1.1009416   0.21734196  0.026329151   -1.1009416    1.3182836      8192000 
    5000   0.99942727   -1.1021961   -1.1021961   0.21521135  0.026527993   -1.1021961    1.3174075      8192000 
    5100   0.99981248   -1.1038394   -1.1038394   0.21407588  0.026469174   -1.1038394    1.3179152      8192000 
    5200    1.0005525   -1.1061481   -1.1061481   0.21274259  0.026023112   -1.1061481    1.3188907      8192000 
    5300   0.99970939   -1.1079558   -1.1079558   0.20982353  0.026416515   -1.1079558    1.3177794      8192000 
    5400   0.99931035   -1.1099547   -1.1099547   0.20729865  0.026752504   -1.1099547    1.3172534      8192000 
    5500    1.0000344   -1.1118093   -1.1118093   0.20639843  0.025912801   -1.1118093    1.3182078      8192000 
    5600    1.0000458   -1.1127843   -1.1127843    0.2054385  0.026735725   -1.1127843    1.3182228      8192000 
    5700    1.0004745   -1.1156863   -1.1156863   0.20310161  0.026056946   -1.1156863    1.3187879      8192000 
    5800   0.99930619   -1.1173238   -1.1173238   0.19992403  0.025707655   -1.1173238    1.3172479      8192000 
    5900   0.99947288   -1.1190133   -1.1190133   0.19845431  0.026112231   -1.1190133    1.3174676      8192000 
    6000    1.0000655   -1.1202733   -1.1202733   0.19797536  0.025698193   -1.1202733    1.3182487      8192000 
    6100    1.0003192   -1.1222251   -1.1222251   0.19635809  0.026625183   -1.1222251    1.3185832      8192000 
    6200   0.99994042   -1.1247579   -1.1247579   0.19332597  0.026767008   -1.1247579    1.3180839      8192000 
    6300   0.99871539   -1.1261327   -1.1261327   0.19033645  0.026139053   -1.1261327    1.3164691      8192000 
    6400   0.99954682   -1.1278895   -1.1278895   0.18967559   0.02647037   -1.1278895    1.3175651      8192000 
    6500    1.0011202    -1.130187    -1.130187   0.18945205  0.026046565    -1.130187     1.319639      8192000 
    6600    1.0003089   -1.1313193   -1.1313193   0.18725023  0.025670169   -1.1313193    1.3185696      8192000 
    6700   0.99963507   -1.1332449   -1.1332449   0.18443649   0.02577901   -1.1332449    1.3176814      8192000 
    6800   0.99970656   -1.1351239   -1.1351239   0.18265177  0.026753667   -1.1351239    1.3177756      8192000 
    6900    1.0000442   -1.1364078   -1.1364078   0.18181295   0.02608806   -1.1364078    1.3182207      8192000 
    7000    1.0003163   -1.1378556   -1.1378556   0.18072379  0.025724884   -1.1378556    1.3185794      8192000 
    7100   0.99978506   -1.1387542   -1.1387542   0.17912494  0.025263378   -1.1387542    1.3178791      8192000 
    7200   0.99953608   -1.1395134   -1.1395134   0.17803752  0.026077812   -1.1395134    1.3175509      8192000 
    7300    1.0009257   -1.1412881   -1.1412881    0.1780945  0.026171468   -1.1412881    1.3193826      8192000 
    7400    1.0010771   -1.1432891   -1.1432891   0.17629317   0.02594155   -1.1432891    1.3195822      8192000 
    7500   0.99938779   -1.1446093   -1.1446093   0.17274614  0.025175927   -1.1446093    1.3173554      8192000 
    7600   0.99895788    -1.146387    -1.146387   0.17040177  0.025535769    -1.146387    1.3167887      8192000 
    7700    1.0001321   -1.1476212   -1.1476212   0.17071531  0.026441269   -1.1476212    1.3183365      8192000 
    7800    1.0010561   -1.1489192   -1.1489192   0.17063538  0.025851664   -1.1489192    1.3195546      8192000 
    7900    1.0002588   -1.1500354   -1.1500354   0.16846812  0.025268225   -1.1500354    1.3185036      8192000 
    8000   0.99940894   -1.1516424   -1.1516424   0.16574095  0.025673857   -1.1516424    1.3173833      8192000 
    8100   0.99980023   -1.1530992   -1.1530992    0.1647999  0.026548077   -1.1530992    1.3178991      8192000 
    8200    1.0005292   -1.1541844   -1.1541844    0.1646756  0.025026512   -1.1541844      1.31886      8192000 
    8300   0.99971854    -1.154303    -1.154303   0.16348841  0.025574509    -1.154303    1.3177914      8192000 
    8400   0.99982868   -1.1562741   -1.1562741   0.16166255  0.026481063   -1.1562741    1.3179366      8192000 
    8500   0.99958478   -1.1582923   -1.1582923   0.15932283  0.025387779   -1.1582923    1.3176151      8192000 
    8600   0.99947905   -1.1589687   -1.1589687   0.15850705   0.02467203   -1.1589687    1.3174757      8192000 
    8700    1.0001045   -1.1594126   -1.1594126   0.15888755  0.025635028   -1.1594126    1.3183002      8192000 
    8800    1.0008241   -1.1614969   -1.1614969    0.1577519  0.026760046   -1.1614969    1.3192488      8192000 
    8900   0.99916671   -1.1625409   -1.1625409   0.15452313  0.026444899   -1.1625409     1.317064      8192000 
    9000   0.99912571   -1.1639042   -1.1639042   0.15310574  0.024801891   -1.1639042      1.31701      8192000 
    9100    1.0000592   -1.1644839   -1.1644839   0.15375658  0.026053848   -1.1644839    1.3182405      8192000 
    9200    1.0014625   -1.1660798   -1.1660798   0.15401053  0.025406516   -1.1660798    1.3200903      8192000 
    9300   0.99977561   -1.1662613   -1.1662613   0.15160539   0.02509079   -1.1662613    1.3178666      8192000 
    9400   0.99934789   -1.1681668   -1.1681668   0.14913599  0.026285599   -1.1681668    1.3173028      8192000 
    9500   0.99925509   -1.1688679   -1.1688679   0.14831266  0.026146011   -1.1688679    1.3171805      8192000 
    9600   0.99955014   -1.1687843   -1.1687843   0.14878514  0.025478231   -1.1687843    1.3175694      8192000 
    9700    1.0009289   -1.1704814   -1.1704814   0.14890551  0.025658533   -1.1704814    1.3193869      8192000 
    9800     1.000614   -1.1724498   -1.1724498   0.14652196  0.025217649   -1.1724498    1.3189717      8192000 
    9900   0.99866409   -1.1729301   -1.1729301   0.14347135   0.02551656   -1.1729301    1.3164015      8192000 
   10000   0.99980886   -1.1747658   -1.1747658   0.14314464  0.026206419   -1.1747658    1.3179105      8192000 
   10100    1.0008475   -1.1756441   -1.1756441   0.14363546  0.025920394   -1.1756441    1.3192796      8192000 
   10200    1.0010876   -1.1779529   -1.1779529   0.14164311  0.025008321   -1.1779529     1.319596      8192000 
   10300   0.99924147   -1.1793027   -1.1793027   0.13785986  0.025690425   -1.1793027    1.3171626      8192000 
   10400   0.99906086   -1.1808204   -1.1808204   0.13610408  0.026611705   -1.1808204    1.3169245      8192000 
   10500    1.0000546   -1.1820434   -1.1820434     0.136191  0.025398574   -1.1820434    1.3182344      8192000 
   10600    1.0008892   -1.1834431   -1.1834431   0.13589135  0.024950903   -1.1834431    1.3193345      8192000 
   10700   0.99979677    -1.184037    -1.184037   0.13385758  0.026823588    -1.184037    1.3178945      8192000 
   10800   0.99883417   -1.1843416   -1.1843416   0.13228409  0.026781637   -1.1843416    1.3166257      8192000 
   10900    1.0007623   -1.1867113   -1.1867113   0.13245593  0.024534492   -1.1867113    1.3191673      8192000 
   11000    1.0006604   -1.1867358   -1.1867358   0.13229715  0.025508969   -1.1867358    1.3190329      8192000 
   11100    1.0004936   -1.1882592   -1.1882592   0.13055386  0.026374015   -1.1882592    1.3188131      8192000 
   11200   0.99900304   -1.1884452   -1.1884452   0.12840304     0.026501   -1.1884452    1.3168483      8192000 
   11300    1.0007968   -1.1906652   -1.1906652    0.1285475  0.022404383   -1.1906652    1.3192127      8192000 
   11400    1.0010112   -1.1908734   -1.1908734   0.12862199  0.025342531   -1.1908734    1.3194953      8192000 
   11500   0.99920619   -1.1916357   -1.1916357    0.1254803   0.02670521   -1.1916357    1.3171161      8192000 
   11600   0.99955593   -1.1938962   -1.1938962   0.12368087  0.025605471   -1.1938962    1.3175771      8192000 
   11700   0.99989554   -1.1940745   -1.1940745   0.12395022  0.022728388   -1.1940745    1.3180247      8192000 
   11800     1.001264   -1.1948492   -1.1948492    0.1249793  0.025986858   -1.1948492    1.3198285      8192000 
   11900    1.0003269   -1.1958074   -1.1958074   0.12278583  0.026796471   -1.1958074    1.3185933      8192000 
   12000   0.99921488   -1.1971221   -1.1971221   0.12000546  0.024764052   -1.1971221    1.3171275      8192000 
   12100    1.0005029   -1.1990316   -1.1990316   0.11979371  0.023751482   -1.1990316    1.3188253      8192000 
   12200    1.0004432   -1.1995975   -1.1995975   0.11914918  0.023489786   -1.1995975    1.3187467      8192000 
   12300   0.99842823   -1.2005376   -1.2005376   0.11555294  0.026729251   -1.2005376    1.3160906      8192000 
   12400    0.9990889   -1.2017395   -1.2017395    0.1152219  0.027881242   -1.2017395    1.3169615      8192000 
   12500    1.0012368   -1.2027394   -1.2027394    0.1170533  0.023873624   -1.2027394    1.3197927      8192000 
   12600     1.001234   -1.2035734   -1.2035734   0.11621561  0.022511533   -1.2035734     1.319789      8192000 
   12700   0.99879282   -1.2049917   -1.2049917   0.11157949  0.026741516   -1.2049917    1.3165712      8192000 
   12800   0.99984079   -1.2054231   -1.2054231   0.11252947  0.024705468   -1.2054231    1.3179526      8192000 
   12900    1.0009279   -1.2056684   -1.2056684   0.11371712  0.023955904   -1.2056684    1.3193856      8192000 
   13000    1.0009097   -1.2073942   -1.2073942   0.11196734  0.025998623   -1.2073942    1.3193616      8192000 
   13100    1.0001327    -1.209209    -1.209209    0.1091283  0.029516588    -1.209209    1.3183373      8192000 
   13200    1.0006366   -1.2107873   -1.2107873   0.10821418  0.025827196   -1.2107873    1.3190015      8192000 
   13300   0.99987726   -1.2110102   -1.2110102   0.10699045  0.024460967   -1.2110102    1.3180006      8192000 
   13400   0.99816047   -1.2109323   -1.2109323   0.10480531  0.025029425   -1.2109323    1.3157376      8192000 
   13500   0.99836731   -1.2124605   -1.2124605   0.10354974  0.026031493   -1.2124605    1.3160103      8192000 
   13600   0.99967495   -1.2125996   -1.2125996   0.10513432  0.025901285   -1.2125996     1.317734      8192000 
   13700    1.0024757   -1.2147162   -1.2147162   0.10670957   0.02209225   -1.2147162    1.3214258      8192000 
   13800    1.0004447   -1.2156453   -1.2156453   0.10310329  0.024724833   -1.2156453    1.3187486      8192000 
   13900    1.0002394   -1.2170956   -1.2170956   0.10138239  0.027042604   -1.2170956     1.318478      8192000 
   14000    1.0001111   -1.2178488   -1.2178488   0.10046014  0.025503765   -1.2178488    1.3183089      8192000 
   14100     1.000182   -1.2199752   -1.2199752  0.098427091  0.024302871   -1.2199752    1.3184023      8192000 
   14200   0.99850727   -1.2201328   -1.2201328  0.096061946  0.025348232   -1.2201328    1.3161948      8192000 
   14300   0.99873089   -1.2218913   -1.2218913  0.094598237  0.023595122   -1.2218913    1.3164895      8192000 
   14400   0.99919602   -1.2221907   -1.2221907  0.094911915   0.02422014   -1.2221907    1.3171026      8192000 
   14500    1.0010768    -1.223397    -1.223397  0.096184855  0.027281397    -1.223397    1.3195818      8192000 
   14600    1.0005939    -1.224011    -1.224011  0.094934284   0.02943335    -1.224011    1.3189453      8192000 
   14700   0.99884596   -1.2244669   -1.2244669  0.092174278   0.02294239   -1.2244669    1.3166412      8192000 
   14800   0.99990062   -1.2256696   -1.2256696  0.092361851  0.023527547   -1.2256696    1.3180314      8192000 
   14900    1.0013021     -1.22684     -1.22684  0.093038734  0.025062602     -1.22684    1.3198787      8192000 
   15000   0.99882024   -1.2272343   -1.2272343  0.089372989  0.024144005   -1.2272343    1.3166073      8192000 
   15100   0.99883514   -1.2286892   -1.2286892  0.087937774  0.024602158   -1.2286892    1.3166269      8192000 
   15200    1.0011302   -1.2309355   -1.2309355  0.088716675  0.028499463   -1.2309355    1.3196522      8192000 
   15300    1.0013381   -1.2331763   -1.2331763  0.086749954  0.026267871   -1.2331763    1.3199263      8192000 
   15400   0.99918721   -1.2335229   -1.2335229  0.083568103  0.023323175   -1.2335229     1.317091      8192000 
   15500    1.0004844   -1.2351959   -1.2351959  0.083605044  0.023645634   -1.2351959     1.318801      8192000 
   15600    1.0008669   -1.2359805   -1.2359805  0.083324672  0.024827171   -1.2359805    1.3193052      8192000 
   15700   0.99855982   -1.2354462   -1.2354462  0.080817868  0.024235182   -1.2354462     1.316264      8192000 
   15800   0.99851686    -1.237038    -1.237038  0.079169438  0.025474461    -1.237038    1.3162074      8192000 
   15900    1.0014878    -1.238509    -1.238509  0.081614536  0.025223653    -1.238509    1.3201236      8192000 
   16000    1.0016837   -1.2382516   -1.2382516  0.082130185  0.025684874   -1.2382516    1.3203818      8192000 
   16100   0.99903442   -1.2399673   -1.2399673   0.07692238  0.027329903   -1.2399673    1.3168896      8192000 
   16200   0.99996328   -1.2410071   -1.2410071  0.077106887  0.024536815   -1.2410071     1.318114      8192000 
   16300    1.0015333   -1.2425595   -1.2425595  0.077624111  0.021815508   -1.2425595    1.3201836      8192000 
   16400    1.0002378   -1.2433869   -1.2433869  0.075089036  0.024782102   -1.2433869    1.3184759      8192000 
   16500   0.99946188   -1.2446733   -1.2446733  0.072779788  0.025425248   -1.2446733    1.3174531      8192000 
   16600     1.000265   -1.2456362   -1.2456362  0.072875601  0.024163131   -1.2456362    1.3185118      8192000 
   16700     1.000377   -1.2471223   -1.2471223  0.071536983  0.024775101   -1.2471223    1.3186593      8192000 
   16800   0.99807622   -1.2477065   -1.2477065  0.067920114  0.024644889   -1.2477065    1.3156266      8192000 
   16900   0.99954121   -1.2482785   -1.2482785  0.069279161  0.026576697   -1.2482785    1.3175577      8192000 
   17000    1.0006399   -1.2483542   -1.2483542  0.070651745  0.024058973   -1.2483542     1.319006      8192000 
   17100    1.0012308   -1.2494214   -1.2494214  0.070363374  0.021754743   -1.2494214    1.3197848      8192000 
   17200    0.9995257   -1.2499966   -1.2499966  0.067540609  0.026897734   -1.2499966    1.3175372      8192000 
   17300   0.99865373    -1.250921    -1.250921  0.065466816   0.02634116    -1.250921    1.3163878      8192000 
   17400    1.0000076    -1.252377    -1.252377  0.065795395  0.023946794    -1.252377    1.3181724      8192000 
   17500    1.0012012   -1.2543131   -1.2543131  0.065432758  0.024761231   -1.2543131    1.3197458      8192000 
   17600    1.0003951   -1.2557576   -1.2557576   0.06292563  0.027851546   -1.2557576    1.3186832      8192000 
   17700   0.99958809   -1.2571717   -1.2571717   0.06044771  0.025151757   -1.2571717    1.3176195      8192000 
   17800    1.0001072   -1.2588204   -1.2588204  0.059483411  0.019833751   -1.2588204    1.3183038      8192000 
   17900    1.0000309   -1.2592442   -1.2592442  0.058958971  0.025512606   -1.2592442    1.3182032      8192000 
   18000    1.0008024   -1.2602022   -1.2602022  0.059017957  0.027717617   -1.2602022    1.3192201      8192000 
   18100   0.99994583   -1.2611833   -1.2611833  0.056907768  0.024413048   -1.2611833     1.318091      8192000 
   18200   0.99851925   -1.2610441   -1.2610441  0.055166496   0.02566079   -1.2610441    1.3162106      8192000 
   18300    1.0000762   -1.2619375   -1.2619375  0.056325343  0.025436651   -1.2619375    1.3182628      8192000 
   18400    1.0017086   -1.2624742   -1.2624742  0.057940482  0.024347751   -1.2624742    1.3204147      8192000 
   18500   0.99995638   -1.2633107   -1.2633107  0.054794215  0.022843459   -1.2633107    1.3181049      8192000 
   18600   0.99897912   -1.2643417   -1.2643417  0.052475056  0.025066486   -1.2643417    1.3168167      8192000 
   18700   0.99981726   -1.2649752   -1.2649752  0.052946332  0.029455062   -1.2649752    1.3179215      8192000 
   18800    1.0010504   -1.2660418   -1.2660418    0.0535052  0.026867951   -1.2660418     1.319547      8192000 
   18900   0.99960188    -1.267759    -1.267759  0.049878608  0.020854896    -1.267759    1.3176376      8192000 
   19000    0.9990522   -1.2684992   -1.2684992  0.048413919  0.024278678   -1.2684992    1.3169131      8192000 
   19100    1.0002021   -1.2687971   -1.2687971  0.049631783  0.026268243   -1.2687971    1.3184288      8192000 
   19200    1.0014086   -1.2705761   -1.2705761  0.049443183  0.027835673   -1.2705761    1.3200192      8192000 
   19300   0.99946091   -1.2723231   -1.2723231  0.045128744  0.030058734   -1.2723231    1.3174518      8192000 
   19400   0.99965394   -1.2730987   -1.2730987  0.044607544  0.021776733   -1.2730987    1.3177063      8192000 
   19500    1.0008996    -1.274073    -1.274073  0.045275237  0.020778873    -1.274073    1.3193482      8192000 
   19600    1.0010306   -1.2751401   -1.2751401  0.044380763  0.024026657   -1.2751401    1.3195209      8192000 
   19700   0.99836035   -1.2751443   -1.2751443  0.040856795  0.025877424   -1.2751443    1.3160011      8192000 
   19800   0.99991067   -1.2771367   -1.2771367  0.040908025  0.022021221   -1.2771367    1.3180447      8192000 
   19900    1.0009356   -1.2777873   -1.2777873   0.04160833  0.022613382   -1.2777873    1.3193957      8192000 
   20000    1.0005677     -1.27817     -1.27817  0.040740785  0.028715246     -1.27817    1.3189108      8192000 
   20100   0.99865804   -1.2801335   -1.2801335  0.036260022  0.027308854   -1.2801335    1.3163935      8192000 
   20200   0.99940063   -1.2802715   -1.2802715  0.037100839  0.021687245   -1.2802715    1.3173724      8192000 
   20300    1.0013436    -1.281213    -1.281213  0.038720477  0.024049395    -1.281213    1.3199335      8192000 
   20400   0.99980812   -1.2811883   -1.2811883  0.036721175  0.025601314   -1.2811883    1.3179095      8192000 
   20500   0.99872088   -1.2820647   -1.2820647  0.034411669  0.021151012   -1.2820647    1.3164763      8192000 
   20600   0.99967832   -1.2824531   -1.2824531  0.035285336  0.024510656   -1.2824531    1.3177384      8192000 
   20700    1.0010844   -1.2844981   -1.2844981  0.035093722  0.028913958   -1.2844981    1.3195919      8192000 
   20800    1.0010032   -1.2867702   -1.2867702   0.03271456  0.027159223   -1.2867702    1.3194847      8192000 
   20900     1.001062   -1.2886541   -1.2886541  0.030908199  0.023022826   -1.2886541    1.3195623      8192000 
   21000    1.0001491   -1.2885224   -1.2885224  0.029836658  0.022803964   -1.2885224     1.318359      8192000 
   21100   0.99967274   -1.2887875   -1.2887875  0.028943564  0.023755404   -1.2887875     1.317731      8192000 
   21200   0.99982907   -1.2912766   -1.2912766  0.026660505  0.025479348   -1.2912766    1.3179371      8192000 
   21300   0.99877306   -1.2929688   -1.2929688  0.023576299  0.025584945   -1.2929688    1.3165451      8192000 
   21400     1.000607    -1.294818    -1.294818  0.024144654    0.0262124    -1.294818    1.3189626      8192000 
   21500    1.0013732    -1.295866    -1.295866  0.024106562  0.025387323    -1.295866    1.3199725      8192000 
   21600    0.9991795   -1.2972504   -1.2972504  0.019830494  0.020531842   -1.2972504    1.3170809      8192000 
   21700   0.99951017   -1.2985925   -1.2985925  0.018924238  0.024499521   -1.2985925    1.3175168      8192000 
   21800    1.0002756   -1.2988922   -1.2988922  0.019633425  0.026071963   -1.2988922    1.3185257      8192000 
   21900    1.0009898   -1.2995881   -1.2995881  0.019879021  0.024846836   -1.2995881    1.3194671      8192000 
   22000   0.99987666   -1.2999565   -1.2999565  0.018043304  0.021342445   -1.2999565    1.3179998      8192000 
   22100   0.99798068   -1.2999932   -1.2999932  0.015507486  0.025312129   -1.2999932    1.3155006      8192000 
   22200   0.99968284   -1.3006055   -1.3006055  0.017138868  0.027363034   -1.3006055    1.3177444      8192000 
   22300    1.0023953   -1.3021466   -1.3021466  0.019173275  0.027328047   -1.3021466    1.3213198      8192000 
   22400    1.0015982   -1.3028757   -1.3028757  0.017393444  0.021113266   -1.3028757    1.3202691      8192000 
   22500    1.0003749   -1.3039814   -1.3039814  0.014675157   0.02469856   -1.3039814    1.3186566      8192000 
   22600   0.99905003   -1.3040794   -1.3040794    0.0128308  0.025168806   -1.3040794    1.3169102      8192000 
   22700   0.99936277    -1.304412    -1.304412  0.012910432  0.024214403    -1.304412    1.3173224      8192000 
   22800    1.0015228   -1.3057719   -1.3057719  0.014397776  0.022617201   -1.3057719    1.3201697      8192000 
   22900    1.0015955   -1.3059964   -1.3059964  0.014269162    0.0257503   -1.3059964    1.3202655      8192000 
   23000   0.99985641   -1.3078087   -1.3078087  0.010164478   0.02828658   -1.3078087    1.3179732      8192000 
   23100    1.0000414   -1.3087428   -1.3087428 0.0094742969  0.025088058   -1.3087428    1.3182171      8192000 
   23200    1.0004196   -1.3087586   -1.3087586 0.0099569107  0.022362121   -1.3087586    1.3187155      8192000 
   23300    1.0011576   -1.3101693   -1.3101693 0.0095190087  0.023453053   -1.3101693    1.3196883      8192000 
   23400   0.99935232   -1.3114613   -1.3114613 0.0058473485  0.024710204   -1.3114613    1.3173087      8192000 
   23500   0.99947461   -1.3124358   -1.3124358 0.0050340447  0.028783448   -1.3124358    1.3174699      8192000 
   23600    1.0014607   -1.3139592   -1.3139592 0.0061286373  0.025567164   -1.3139592    1.3200878      8192000 
   23700     1.000048   -1.3136018   -1.3136018 0.0046239451  0.021570817   -1.3136018    1.3182257      8192000 
   23800   0.99835198   -1.3149242   -1.3149242 0.0010658644  0.023084549   -1.3149242    1.3159901      8192000 
   23900   0.99984703   -1.3160291   -1.3160291 0.0019316649  0.025899974   -1.3160291    1.3179608      8192000 
   24000    1.0013954   -1.3175009   -1.3175009 0.0025008708  0.028196839   -1.3175009    1.3200018      8192000 
   24100   0.99924587   -1.3184296   -1.3184296 -0.0012612676  0.018219004   -1.3184296    1.3171684      8192000 
   24200   0.99871669   -1.3188278   -1.3188278 -0.0023569804  0.024320774   -1.3188278    1.3164708      8192000 
   24300   0.99969851   -1.3185382   -1.3185382 -0.00077318343  0.025886199   -1.3185382     1.317765      8192000 
   24400    1.0017531   -1.3205383   -1.3205383 -6.4908627e-05    0.0237278   -1.3205383    1.3204733      8192000 
   24500    1.0000369   -1.3214559   -1.3214559 -0.0032447621  0.022509603   -1.3214559    1.3182111      8192000 
   24600   0.99887961   -1.3216924   -1.3216924 -0.0050067766  0.027666478   -1.3216924    1.3166856      8192000 
   24700     1.000607   -1.3234146   -1.3234146 -0.0044519746  0.027831649   -1.3234146    1.3189626      8192000 
   24800    1.0008782   -1.3249018   -1.3249018 -0.0055817686  0.023239958   -1.3249018      1.31932      8192000 
   24900   0.99908472   -1.3257842   -1.3257842 -0.0088282623  0.022672258   -1.3257842    1.3169559      8192000 
   25000    1.0000534   -1.3274057   -1.3274057 -0.0091728284  0.023944363   -1.3274057    1.3182328      8192000 
   25100    1.0001165   -1.3276133   -1.3276133 -0.0092973287  0.025064814   -1.3276133     1.318316      8192000 
   25200     1.000721   -1.3293866   -1.3293866 -0.010273797  0.027336616   -1.3293866    1.3191128      8192000 
   25300    1.0002888   -1.3304442   -1.3304442 -0.011901097  0.027549371   -1.3304442    1.3185431      8192000 
   25400   0.99989803   -1.3304267   -1.3304267 -0.012398696  0.022776128   -1.3304267     1.318028      8192000 
   25500   0.99989656    -1.330835    -1.330835 -0.012808967   0.02317758    -1.330835    1.3180261      8192000 
   25600    0.9991173   -1.3301355   -1.3301355 -0.013136619  0.026641926   -1.3301355    1.3169989      8192000 
   25700    1.0004829   -1.3331614   -1.3331614 -0.014362341  0.024125568   -1.3331614     1.318799      8192000 
   25800   0.99958422   -1.3354565   -1.3354565 -0.017842159  0.021790674   -1.3354565    1.3176144      8192000 
   25900    0.9992269   -1.3361076   -1.3361076 -0.018964212  0.025941308   -1.3361076    1.3171434      8192000 
   26000    1.0007614   -1.3373847   -1.3373847  -0.01821852    0.0261678   -1.3373847    1.3191661      8192000 
   26100   0.99986397   -1.3380006   -1.3380006 -0.020017511  0.024175037   -1.3380006    1.3179831      8192000 
   26200   0.99808088   -1.3389287   -1.3389287 -0.023295956  0.022040601   -1.3389287    1.3156327      8192000 
   26300   0.99955036   -1.3388683   -1.3388683 -0.021298539  0.026150082   -1.3388683    1.3175697      8192000 
   26400    1.0016108   -1.3397084   -1.3397084 -0.019422719  0.032698119   -1.3397084    1.3202857      8192000 
   26500    1.0005832    -1.339831    -1.339831 -0.020899761  0.022885376    -1.339831    1.3189312      8192000 
   26600   0.99953442   -1.3402552   -1.3402552 -0.022706459  0.022579458   -1.3402552    1.3175487      8192000 
   26700    1.0003362   -1.3412987   -1.3412987  -0.02269311  0.023072872   -1.3412987    1.3186055      8192000 
   26800    1.0003748   -1.3420955   -1.3420955 -0.023439034  0.023896522   -1.3420955    1.3186564      8192000 
   26900   0.99957566   -1.3425957   -1.3425957  -0.02499262  0.023568043   -1.3425957    1.3176031      8192000 
   27000   0.99882004   -1.3441062   -1.3441062 -0.027499167  0.021513574   -1.3441062     1.316607      8192000 
   27100   0.99790178   -1.3440155   -1.3440155 -0.028618858   0.02676512   -1.3440155    1.3153966      8192000 
   27200    1.0006119   -1.3436285   -1.3436285 -0.024659458  0.026527161   -1.3436285     1.318969      8192000 
   27300    1.0017623   -1.3448964   -1.3448964 -0.024411002  0.024788444   -1.3448964    1.3204854      8192000 
   27400   0.99957866   -1.3446468   -1.3446468 -0.027039727   0.02335267   -1.3446468     1.317607      8192000 
   27500   0.99963113    -1.345522    -1.345522 -0.027845792  0.024380166    -1.345522    1.3176762      8192000 
   27600    1.0015645   -1.3478956   -1.3478956 -0.027670934  0.028578856   -1.3478956    1.3202246      8192000 
   27700    1.0002732   -1.3489247   -1.3489247 -0.030402231  0.026391941   -1.3489247    1.3185225      8192000 
   27800   0.99951092   -1.3512006   -1.3512006  -0.03368289   0.01938087   -1.3512006    1.3175177      8192000 
   27900    1.0005476   -1.3524208   -1.3524208  -0.03353649  0.024371399   -1.3524208    1.3188843      8192000 
   28000    1.0005358   -1.3530016   -1.3530016 -0.034132921  0.025695644   -1.3530016    1.3188686      8192000 
   28100   0.99873583   -1.3537204   -1.3537204 -0.037224396  0.021568022   -1.3537204     1.316496      8192000 
   28200   0.99928656    -1.355143    -1.355143 -0.037920974   0.02490495    -1.355143     1.317222      8192000 
   28300    1.0005378   -1.3545603   -1.3545603 -0.035688951  0.025347586   -1.3545603    1.3188713      8192000 
   28400    1.0027965   -1.3553013   -1.3553013 -0.033452571  0.027017196   -1.3553013    1.3218487      8192000 
   28500    1.0008411   -1.3558499   -1.3558499 -0.036578739  0.028148747   -1.3558499    1.3192712      8192000 
   28600    0.9984219   -1.3560187   -1.3560187  -0.03993644  0.022134745   -1.3560187    1.3160822      8192000 
   28700   0.99969252   -1.3570319   -1.3570319  -0.03927477  0.022652969   -1.3570319    1.3177571      8192000 
   28800    1.0014954    -1.357639    -1.357639 -0.037505407  0.028055101    -1.357639    1.3201336      8192000 
   28900    1.0007512   -1.3585642   -1.3585642 -0.039411647  0.027699635   -1.3585642    1.3191526      8192000 
   29000   0.99906645   -1.3592263   -1.3592263 -0.042294463  0.022176682   -1.3592263    1.3169319      8192000 
   29100   0.99997702   -1.3599204   -1.3599204 -0.041788252  0.021624003   -1.3599204    1.3181321      8192000 
   29200    1.0010461   -1.3608183   -1.3608183 -0.041276947  0.025828375   -1.3608183    1.3195413      8192000 
   29300    1.0001469   -1.3626319   -1.3626319 -0.044275889  0.024960127   -1.3626319    1.3183561      8192000 
   29400   0.99895696   -1.3633866   -1.3633866 -0.046599045  0.022258388   -1.3633866    1.3167875      8192000 
   29500   0.99964692   -1.3630613   -1.3630613 -0.045364286  0.023891114   -1.3630613     1.317697      8192000 
   29600    1.0014244   -1.3643898   -1.3643898 -0.044349686  0.026032886   -1.3643898    1.3200401      8192000 
   29700    1.0001571   -1.3651927   -1.3651927 -0.046823082  0.030523726   -1.3651927    1.3183696      8192000 
   29800    1.0000174   -1.3672423   -1.3672423 -0.049056867  0.021570564   -1.3672423    1.3181854      8192000 
   29900    1.0002436   -1.3681116   -1.3681116 -0.049628103  0.023960301   -1.3681116    1.3184835      8192000 
   30000   0.99958292   -1.3692618   -1.3692618 -0.051649178  0.027565974   -1.3692618    1.3176127      8192000 
   30100   0.99817594   -1.3690487   -1.3690487 -0.053290669   0.02819365   -1.3690487     1.315758      8192000 
   30200    1.0001756   -1.3700458   -1.3700458 -0.051651837  0.026142188   -1.3700458    1.3183939      8192000 
   30300    1.0029824   -1.3704972   -1.3704972 -0.048403532  0.022688832   -1.3704972    1.3220937      8192000 
   30400     1.000725    -1.370521    -1.370521 -0.051402913  0.024002045    -1.370521    1.3191181      8192000 
   30500    1.0001871   -1.3714376   -1.3714376 -0.053028486  0.026853426   -1.3714376    1.3184091      8192000 
   30600      1.00051    -1.371964    -1.371964 -0.053129221  0.027020242    -1.371964    1.3188347      8192000 
   30700   0.99988342   -1.3718707   -1.3718707 -0.053861915  0.018157593   -1.3718707    1.3180088      8192000 
   30800   0.99995931   -1.3736713   -1.3736713 -0.055562541  0.025085492   -1.3736713    1.3181088      8192000 
   30900   0.99897761   -1.3748797   -1.3748797 -0.058064974   0.02632225   -1.3748797    1.3168147      8192000 
   31000   0.99911803   -1.3755442   -1.3755442 -0.058544372  0.022414635   -1.3755442    1.3169998      8192000 
   31100    1.0023344   -1.3772327   -1.3772327 -0.055993117  0.023739546   -1.3772327    1.3212396      8192000 
   31200    1.0026442    -1.377801    -1.377801 -0.056153052  0.027698948    -1.377801    1.3216479      8192000 
   31300    1.0004946   -1.3787336   -1.3787336 -0.059919183  0.028116848   -1.3787336    1.3188144      8192000 
   31400   0.99948893   -1.3781949   -1.3781949 -0.060706158  0.021266981   -1.3781949    1.3174888      8192000 
   31500    1.0012469   -1.3797873   -1.3797873 -0.059981193  0.022703853   -1.3797873    1.3198061      8192000 
   31600    1.0007866    -1.380389    -1.380389 -0.061189706   0.02256383    -1.380389    1.3191993      8192000 
   31700   0.99866899   -1.3810798   -1.3810798 -0.064671826  0.024578853   -1.3810798    1.3164079      8192000 
   31800   0.99951435   -1.3822328   -1.3822328 -0.064710573  0.029453329   -1.3822328    1.3175223      8192000 
   31900    1.0009003     -1.38317     -1.38317 -0.063820769   0.02528956     -1.38317    1.3193492      8192000 
   32000    1.0001216   -1.3846455   -1.3846455 -0.066322692  0.019853541   -1.3846455    1.3183228      8192000 
   32100   0.99803444   -1.3851272   -1.3851272 -0.069555684  0.027211385   -1.3851272    1.3155715      8192000 
   32200    1.0000264    -1.386326    -1.386326 -0.068128782  0.027722515    -1.386326    1.3181973      8192000 
   32300     1.001854   -1.3875101   -1.3875101 -0.066903811  0.023457812   -1.3875101    1.3206063      8192000 
   32400   0.99952117   -1.3870868   -1.3870868 -0.069555582   0.02275197   -1.3870868    1.3175312      8192000 
   32500   0.99793581   -1.3868144   -1.3868144 -0.071372946  0.027394085   -1.3868144    1.3154415      8192000 
   32600   0.99989844   -1.3876514   -1.3876514 -0.069622867   0.03102852   -1.3876514    1.3180286      8192000 
   32700    1.0006115   -1.3880049   -1.3880049  -0.06903643  0.023577264   -1.3880049    1.3189685      8192000 
   32800   0.99972624    -1.388004    -1.388004 -0.070202456  0.022197813    -1.388004    1.3178016      8192000 
   32900   0.99920488   -1.3898122   -1.3898122 -0.072697911  0.023398895   -1.3898122    1.3171143      8192000 
   33000   0.99757797    -1.390014    -1.390014 -0.075044207  0.022646379    -1.390014    1.3149698      8192000 
   33100   0.99962311   -1.3916069   -1.3916069  -0.07394125  0.025792182   -1.3916069    1.3176656      8192000 
   33200      1.00218   -1.3922752   -1.3922752 -0.071239147  0.026576166   -1.3922752    1.3210361      8192000 
   33300    1.0002427   -1.3922058   -1.3922058 -0.073723399  0.023785585   -1.3922058    1.3184824      8192000 
   33400   0.99914582   -1.3929781   -1.3929781 -0.075941642  0.024421143   -1.3929781    1.3170365      8192000 
   33500    0.9995289   -1.3935303   -1.3935303 -0.075988845  0.027693189   -1.3935303    1.3175414      8192000 
   33600    1.0008587   -1.3951205   -1.3951205 -0.075826181  0.028782941   -1.3951205    1.3192943      8192000 
   33700    0.9998267    -1.396696    -1.396696 -0.078761976   0.02450128    -1.396696     1.317934      8192000 
   33800   0.99948875   -1.3991072   -1.3991072 -0.081618699  0.020922059   -1.3991072    1.3174885      8192000 
   33900    1.0009441   -1.4018212   -1.4018212 -0.082414205  0.024189911   -1.4018212    1.3194069      8192000 
   34000   0.99944599   -1.4018147   -1.4018147 -0.084382589  0.023709104   -1.4018147    1.3174321      8192000 
   34100   0.99895458   -1.4029988   -1.4029988 -0.086214357   0.02281515   -1.4029988    1.3167844      8192000 
   34200   0.99835295   -1.4042911   -1.4042911 -0.088299754   0.02148865   -1.4042911    1.3159913      8192000 
   34300   0.99956816    -1.403687    -1.403687 -0.086093826  0.028997866    -1.403687    1.3175932      8192000 
   34400    1.0018501   -1.4047923   -1.4047923 -0.084191152  0.029603333   -1.4047923    1.3206011      8192000 
   34500   0.99980007   -1.4043442   -1.4043442 -0.086445368  0.020863501   -1.4043442    1.3178989      8192000 
   34600   0.99945597   -1.4047642   -1.4047642 -0.087318927  0.024612152   -1.4047642    1.3174453      8192000 
   34700    1.0002291     -1.40601     -1.40601 -0.087545601  0.030289499     -1.40601    1.3184644      8192000 
   34800    1.0007144   -1.4072632   -1.4072632 -0.088159062  0.025295471   -1.4072632    1.3191041      8192000 
   34900   0.99950142   -1.4076372   -1.4076372 -0.090131966  0.021382899   -1.4076372    1.3175052      8192000 
   35000   0.99700988    -1.408368    -1.408368  -0.09414707  0.021928349    -1.408368     1.314221      8192000 
   35100   0.99957239   -1.4093808   -1.4093808 -0.091781986  0.023997325   -1.4093808    1.3175988      8192000 
   35200    1.0020183   -1.4110113   -1.4110113 -0.090188442   0.02425447   -1.4110113    1.3208228      8192000 
   35300    1.0005767   -1.4111923   -1.4111923 -0.092269654  0.025760372   -1.4111923    1.3189226      8192000 
   35400   0.99979848   -1.4124913   -1.4124913 -0.094594474  0.029754598   -1.4124913    1.3178968      8192000 
   35500     1.000667   -1.4140469   -1.4140469 -0.095005289  0.024986372   -1.4140469    1.3190416      8192000 
   35600     1.000697   -1.4156043   -1.4156043 -0.096523142  0.019866615   -1.4156043    1.3190811      8192000 
   35700   0.99906699   -1.4165284   -1.4165284 -0.099595818  0.025513784   -1.4165284    1.3169326      8192000 
   35800   0.99899791   -1.4169564   -1.4169564  -0.10011493   0.02699938   -1.4169564    1.3168415      8192000 
   35900    1.0002311   -1.4177795   -1.4177795 -0.099312522  0.027347444   -1.4177795     1.318467      8192000 
   36000    1.0000091   -1.4172949   -1.4172949 -0.099120471  0.023230907   -1.4172949    1.3181744      8192000 
   36100    1.0002433   -1.4171984   -1.4171984 -0.098715254  0.021788628   -1.4171984    1.3184832      8192000 
   36200    1.0005706   -1.4174943   -1.4174943 -0.098579719  0.027011742   -1.4174943    1.3189146      8192000 
   36300    0.9994337   -1.4182138   -1.4182138  -0.10079785  0.028481946   -1.4182138     1.317416      8192000 
   36400   0.99959951   -1.4208282   -1.4208282  -0.10319369  0.023289205   -1.4208282    1.3176345      8192000 
   36500   0.99965181   -1.4216242   -1.4216242  -0.10392077  0.021723086   -1.4216242    1.3177035      8192000 
   36600    1.0001685    -1.421521    -1.421521  -0.10313649  0.025182822    -1.421521    1.3183845      8192000 
   36700     1.001474   -1.4211603   -1.4211603  -0.10105493  0.027430324   -1.4211603    1.3201054      8192000 
   36800    1.0008664   -1.4224685   -1.4224685  -0.10316401  0.027618829   -1.4224685    1.3193044      8192000 
   36900    1.0001754   -1.4243712   -1.4243712  -0.10597755  0.034745821   -1.4243712    1.3183937      8192000 
   37000    1.0000154   -1.4252044   -1.4252044  -0.10702157  0.016909878   -1.4252044    1.3181828      8192000 
   37100    1.0004209   -1.4260835   -1.4260835  -0.10736622  0.020771078   -1.4260835    1.3187173      8192000 
   37200    1.0000522   -1.4264137   -1.4264137  -0.10818251  0.024634976   -1.4264137    1.3182312      8192000 
   37300   0.99850812   -1.4273817   -1.4273817  -0.11118583  0.025616429   -1.4273817    1.3161959      8192000 
   37400   0.99876481   -1.4278518   -1.4278518  -0.11131754  0.024563836   -1.4278518    1.3165342      8192000 
   37500    1.0009943   -1.4282952   -1.4282952  -0.10882212  0.022989393   -1.4282952     1.319473      8192000 
   37600    1.0003845   -1.4269994   -1.4269994  -0.10833018  0.027352982   -1.4269994    1.3186692      8192000 
   37700   0.99908708   -1.4286504   -1.4286504  -0.11169132  0.031816279   -1.4286504     1.316959      8192000 
   37800   0.99848024    -1.430245    -1.430245  -0.11408586   0.02575088    -1.430245    1.3161591      8192000 
   37900    1.0002468   -1.4312311   -1.4312311  -0.11274339  0.024883697   -1.4312311    1.3184877      8192000 
   38000    1.0005749   -1.4316448   -1.4316448  -0.11272464  0.023293572   -1.4316448    1.3189202      8192000 
   38100   0.99950222   -1.4328183   -1.4328183    -0.115312  0.024956741   -1.4328183    1.3175063      8192000 
   38200    0.9984285   -1.4328349   -1.4328349  -0.11674399  0.023463258   -1.4328349    1.3160909      8192000 
   38300    1.0009555   -1.4330054   -1.4330054  -0.11358342  0.023808087   -1.4330054    1.3194219      8192000 
   38400    1.0022217    -1.432755    -1.432755  -0.11166403  0.025074071    -1.432755    1.3210909      8192000 
   38500    1.0002783   -1.4328053   -1.4328053  -0.11427601  0.028068718   -1.4328053    1.3185292      8192000 
   38600   0.99966998    -1.433486    -1.433486  -0.11575856  0.028524545    -1.433486    1.3177274      8192000 
   38700   0.99983933   -1.4333581   -1.4333581  -0.11540747  0.020266973   -1.4333581    1.3179506      8192000 
   38800    1.0020593   -1.4347734   -1.4347734  -0.11389646  0.025374276   -1.4347734     1.320877      8192000 
   38900    1.0000284   -1.4350839   -1.4350839  -0.11688397  0.025710526   -1.4350839    1.3181999      8192000 
   39000   0.99808314   -1.4347973   -1.4347973  -0.11916157  0.023715961   -1.4347973    1.3156357      8192000 
   39100    1.0005812   -1.4360214   -1.4360214  -0.11709286  0.021202571   -1.4360214    1.3189286      8192000 
   39200    1.0021158   -1.4369548   -1.4369548  -0.11600349  0.025142243   -1.4369548    1.3209514      8192000 
   39300    0.9999051   -1.4372824   -1.4372824  -0.11924504  0.029958572   -1.4372824    1.3180373      8192000 
   39400   0.99935287   -1.4376187   -1.4376187  -0.12030926  0.028266138   -1.4376187    1.3173094      8192000 
   39500    1.0000264   -1.4382621   -1.4382621  -0.12006486  0.022741477   -1.4382621    1.3181972      8192000 
   39600    1.0003647   -1.4392466   -1.4392466  -0.12060344  0.024152854   -1.4392466    1.3186432      8192000 
   39700   0.99861694   -1.4398998   -1.4398998   -0.1235605  0.026107821   -1.4398998    1.3163393      8192000 
   39800   0.99905472   -1.4418094   -1.4418094  -0.12489306  0.026255518   -1.4418094    1.3169164      8192000 
   39900    1.0010042   -1.4427242   -1.4427242  -0.12323805  0.021606785   -1.4427242    1.3194861      8192000 
   40000    1.0034697   -1.4438806   -1.4438806  -0.12114457   0.02543367   -1.4438806    1.3227361      8192000 
   40100    1.0001932   -1.4437709   -1.4437709  -0.12535382  0.027820376   -1.4437709    1.3184171      8192000 
   40200   0.99970297   -1.4448078   -1.4448078  -0.12703688  0.022394654   -1.4448078    1.3177709      8192000 
   40300   0.99988592    -1.445605    -1.445605  -0.12759293   0.02257924    -1.445605     1.318012      8192000 
   40400    1.0003727   -1.4454515   -1.4454515   -0.1267977  0.028355415   -1.4454515    1.3186537      8192000 
   40500    1.0005718   -1.4452375   -1.4452375  -0.12632139  0.029283932   -1.4452375    1.3189161      8192000 
   40600    1.0001978   -1.4461852   -1.4461852  -0.12776203   0.02383685   -1.4461852    1.3184232      8192000 
   40700   0.99889423   -1.4469695   -1.4469695  -0.13026465  0.025115637   -1.4469695    1.3167048      8192000 
   40800   0.99953794   -1.4483812   -1.4483812  -0.13082782  0.025337464   -1.4483812    1.3175534      8192000 
   40900   0.99985589   -1.4483157   -1.4483157  -0.13034324  0.024380396   -1.4483157    1.3179725      8192000 
   41000    1.0007956   -1.4498254   -1.4498254  -0.13061432  0.025226843   -1.4498254    1.3192111      8192000 
   41100   0.99967973   -1.4512567   -1.4512567  -0.13351646  0.028316087   -1.4512567    1.3177403      8192000 
   41200   0.99892855   -1.4516846   -1.4516846   -0.1349345  0.024368429   -1.4516846    1.3167501      8192000 
   41300   0.99997895    -1.453091    -1.453091  -0.13495633  0.023318435    -1.453091    1.3181347      8192000 
   41400    1.0014124   -1.4542019   -1.4542019  -0.13417774  0.025166111   -1.4542019    1.3200242      8192000 
   41500    1.0015187   -1.4551409   -1.4551409  -0.13497661  0.026098984   -1.4551409    1.3201643      8192000 
   41600   0.99882385    -1.454634    -1.454634   -0.1380219  0.026713482    -1.454634    1.3166121      8192000 
   41700   0.99910658   -1.4557297   -1.4557297  -0.13874496  0.024672573   -1.4557297    1.3169847      8192000 
   41800    1.0005738    -1.456438    -1.456438  -0.13751924  0.021761766    -1.456438    1.3189188      8192000 
   41900    1.0021581   -1.4567842   -1.4567842  -0.13577702   0.03099879   -1.4567842    1.3210072      8192000 
   42000    1.0002964   -1.4566817   -1.4566817  -0.13812864  0.026300715   -1.4566817    1.3185531      8192000 
   42100   0.99895236   -1.4576766   -1.4576766  -0.14089515  0.023252989   -1.4576766    1.3167815      8192000 
   42200    1.0000237   -1.4586533   -1.4586533  -0.14045961  0.025209202   -1.4586533    1.3181937      8192000 
   42300    1.0005264   -1.4581256   -1.4581256  -0.13926926  0.024812488   -1.4581256    1.3188564      8192000 
   42400    1.0014027   -1.4592279   -1.4592279  -0.13921653  0.022824217   -1.4592279    1.3200114      8192000 
   42500   0.99885878   -1.4587286   -1.4587286  -0.14207043  0.025723203   -1.4587286    1.3166581      8192000 
   42600   0.99891967   -1.4585452   -1.4585452  -0.14180678  0.030377369   -1.4585452    1.3167384      8192000 
   42700    1.0003959   -1.4574137   -1.4574137  -0.13872946  0.028686691   -1.4574137    1.3186842      8192000 
   42800    1.0020716   -1.4594059   -1.4594059  -0.13851272  0.013761726   -1.4594059    1.3208931      8192000 
   42900    1.0011392   -1.4606017   -1.4606017  -0.14093768  0.023701636   -1.4606017     1.319664      8192000 
   43000    1.0000975    -1.461157    -1.461157  -0.14286599  0.026583842    -1.461157     1.318291      8192000 
   43100    1.0003147   -1.4619512   -1.4619512    -0.143374  0.025028414   -1.4619512    1.3185772      8192000 
   43200    1.0002471   -1.4630473   -1.4630473  -0.14455912  0.021907147   -1.4630473    1.3184882      8192000 
   43300   0.99908339   -1.4649795   -1.4649795  -0.14802532  0.029176771   -1.4649795    1.3169542      8192000 
   43400   0.99864528   -1.4661936   -1.4661936  -0.14981689  0.027106322   -1.4661936    1.3163767      8192000 
   43500    1.0008502   -1.4678897   -1.4678897   -0.1486066   0.02182879   -1.4678897    1.3192831      8192000 
   43600    1.0012223    -1.467719    -1.467719  -0.14794534  0.026176738    -1.467719    1.3197737      8192000 
   43700   0.99909279   -1.4670356   -1.4670356  -0.15006905  0.027447017   -1.4670356    1.3169666      8192000 
   43800   0.99835588   -1.4684375   -1.4684375  -0.15244231   0.02345457   -1.4684375    1.3159952      8192000 
   43900   0.99972644   -1.4684989   -1.4684989  -0.15069705  0.025146714   -1.4684989    1.3178018      8192000 
   44000    1.0017903   -1.4684677   -1.4684677   -0.1479454  0.033762015   -1.4684677    1.3205223      8192000 
   44100    1.0015807   -1.4689499   -1.4689499  -0.14870384   0.02512545   -1.4689499    1.3202461      8192000 
   44200    1.0009206   -1.4699489   -1.4699489  -0.15057293  0.022971772   -1.4699489    1.3193759      8192000 
   44300   0.99905867   -1.4701897   -1.4701897  -0.15326808  0.024802591   -1.4701897    1.3169216      8192000 
   44400   0.99988548   -1.4723057   -1.4723057  -0.15429424  0.026411092   -1.4723057    1.3180115      8192000 
   44500    1.0003213   -1.4728939   -1.4728939  -0.15430796  0.022781288   -1.4728939     1.318586      8192000 
   44600   0.99985834   -1.4727742   -1.4727742  -0.15479848  0.022194126   -1.4727742    1.3179757      8192000 
   44700   0.99850696   -1.4719024   -1.4719024  -0.15570804  0.027956716   -1.4719024    1.3161944      8192000 
   44800    0.9998334   -1.4730134   -1.4730134  -0.15507062  0.031607956   -1.4730134    1.3179428      8192000 
   44900    1.0018083   -1.4734301   -1.4734301  -0.15288403  0.022083253   -1.4734301    1.3205461      8192000 
   45000    1.0007991   -1.4730298   -1.4730298  -0.15381407  0.025459901   -1.4730298    1.3192157      8192000 
   45100   0.99852535   -1.4736997   -1.4736997  -0.15748105  0.026404092   -1.4736997    1.3162186      8192000 
   45200    1.0000939   -1.4760017   -1.4760017  -0.15771549  0.024750225   -1.4760017    1.3182862      8192000 
   45300    1.0007315   -1.4763995   -1.4763995  -0.15727274  0.027750336   -1.4763995    1.3191267      8192000 
   45400    1.0006642   -1.4770387   -1.4770387  -0.15800083  0.024410209   -1.4770387    1.3190379      8192000 
   45500   0.99784508   -1.4769975   -1.4769975  -0.16167564  0.021563329   -1.4769975    1.3153219      8192000 
   45600   0.99888435   -1.4774907   -1.4774907   -0.1607989  0.026791831   -1.4774907    1.3166918      8192000 
   45700    1.0003914   -1.4772113   -1.4772113  -0.15853287  0.030698066   -1.4772113    1.3186784      8192000 
   45800    1.0007881   -1.4779268   -1.4779268  -0.15872551  0.026801044   -1.4779268    1.3192013      8192000 
   45900    1.0000041   -1.4778649   -1.4778649  -0.15969702  0.022543593   -1.4778649    1.3181679      8192000 
   46000   0.99913956   -1.4771861   -1.4771861  -0.16015786  0.025962469   -1.4771861    1.3170282      8192000 
   46100    1.0000576   -1.4780056   -1.4780056  -0.15976729  0.026829284   -1.4780056    1.3182383      8192000 
   46200    1.0008562   -1.4793797   -1.4793797  -0.16008867  0.023946748   -1.4793797     1.319291      8192000 
   46300    1.0000832   -1.4811202   -1.4811202  -0.16284809  0.023832146   -1.4811202    1.3182721      8192000 
   46400   0.99968631   -1.4830296   -1.4830296  -0.16528064  0.028587855   -1.4830296    1.3177489      8192000 
   46500   0.99982573   -1.4839093   -1.4839093  -0.16597659  0.029073145   -1.4839093    1.3179327      8192000 
   46600    1.0002825   -1.4836508   -1.4836508  -0.16511599  0.021205294   -1.4836508    1.3185348      8192000 
   46700    1.0018815   -1.4840241   -1.4840241  -0.16338149  0.023697091   -1.4840241    1.3206426      8192000 
   46800    1.0001323    -1.483676    -1.483676  -0.16533925  0.027568757    -1.483676    1.3183368      8192000 
   46900   0.99833204   -1.4836588   -1.4836588  -0.16769501  0.027450503   -1.4836588    1.3159638      8192000 
   47000   0.99963302   -1.4837672   -1.4837672  -0.16608848  0.026844708   -1.4837672    1.3176787      8192000 
   47100     1.001098   -1.4842895   -1.4842895  -0.16467974   0.02841164   -1.4842895    1.3196097      8192000 
   47200    1.0010425   -1.4855946   -1.4855946  -0.16605796  0.020467217   -1.4855946    1.3195366      8192000 
   47300     1.000786   -1.4867288   -1.4867288  -0.16753028  0.024792049   -1.4867288    1.3191986      8192000 
   47400   0.99981327   -1.4868726   -1.4868726   -0.1689563  0.026211408   -1.4868726    1.3179163      8192000 
   47500   0.99949334   -1.4872991   -1.4872991  -0.16980453   0.02589759   -1.4872991    1.3174946      8192000 
   47600   0.99924642   -1.4877406   -1.4877406  -0.17057153  0.021950425   -1.4877406    1.3171691      8192000 
   47700    0.9994568   -1.4887004   -1.4887004  -0.17125404   0.02462192   -1.4887004    1.3174464      8192000 
   47800   0.99968171    -1.488411    -1.488411  -0.17066817  0.031645475    -1.488411    1.3177429      8192000 
   47900    1.0007176   -1.4877852   -1.4877852  -0.16867685  0.024689807   -1.4877852    1.3191083      8192000 
   48000    1.0019065   -1.4892542   -1.4892542  -0.16857869  0.025371487   -1.4892542    1.3206755      8192000 
   48100   0.99996207   -1.4905637   -1.4905637  -0.17245126  0.025404403   -1.4905637    1.3181124      8192000 
   48200   0.99987646   -1.4916498   -1.4916498  -0.17365018  0.021898949   -1.4916498    1.3179996      8192000 
   48300    1.0000521   -1.4910967   -1.4910967  -0.17286559  0.024921666   -1.4910967    1.3182311      8192000 
   48400    1.0010027   -1.4911222   -1.4911222  -0.17163807  0.034652163   -1.4911222    1.3194841      8192000 
   48500    1.0006163   -1.4906152   -1.4906152  -0.17164047  0.025301368   -1.4906152    1.3189748      8192000 
   48600   0.99957448   -1.4929154   -1.4929154  -0.17531385  0.022045639   -1.4929154    1.3176015      8192000 
   48700   0.99933596   -1.4935327   -1.4935327  -0.17624558  0.026347064   -1.4935327    1.3172871      8192000 
   48800    1.0005704   -1.4943647   -1.4943647  -0.17545032  0.026388466   -1.4943647    1.3189143      8192000 
   48900    1.0008714   -1.4954202   -1.4954202  -0.17610915  0.025069734   -1.4954202     1.319311      8192000 
   49000   0.99889988   -1.4958243   -1.4958243  -0.17911201  0.023459542   -1.4958243    1.3167123      8192000 
   49100   0.99913412   -1.4962391   -1.4962391  -0.17921804  0.024963743   -1.4962391    1.3170211      8192000 
   49200    1.0010024   -1.4977205   -1.4977205  -0.17823681  0.025965981   -1.4977205    1.3194837      8192000 
   49300    1.0005631    -1.499979    -1.499979   -0.1810744  0.023902458    -1.499979    1.3189046      8192000 
   49400   0.99798888   -1.4985298   -1.4985298   -0.1830184  0.026331626   -1.4985298    1.3155114      8192000 
   49500    1.0002605   -1.4992673   -1.4992673  -0.18076143  0.029913933   -1.4992673    1.3185058      8192000 
   49600    1.0014302   -1.4996293   -1.4996293  -0.17958156  0.026106618   -1.4996293    1.3200477      8192000 
   49700    1.0003373   -1.5001708   -1.5001708  -0.18156379   0.02457673   -1.5001708     1.318607      8192000 
   49800    0.9992494    -1.500604    -1.500604  -0.18343102  0.027549147    -1.500604     1.317173      8192000 
   49900   0.99970657   -1.5010637   -1.5010637  -0.18328809  0.025904687   -1.5010637    1.3177756      8192000 
   50000    1.0004049   -1.5012721   -1.5012721  -0.18257596  0.024361232   -1.5012721    1.3186961      8192000 
   50100    1.0008456   -1.5006111   -1.5006111  -0.18133401  0.022856244   -1.5006111    1.3192771      8192000 
   50200    1.0010604   -1.5010161   -1.5010161   -0.1814559  0.025145922   -1.5010161    1.3195602      8192000 
   50300   0.99946251   -1.5023392   -1.5023392  -0.18488524  0.033087898   -1.5023392    1.3174539      8192000 
   50400   0.99867861   -1.5020187   -1.5020187   -0.1855981  0.026984746   -1.5020187    1.3164206      8192000 
   50500    1.0012053   -1.5039088   -1.5039088  -0.18415761  0.022449697   -1.5039088    1.3197512      8192000 
   50600    1.0002588   -1.5041384   -1.5041384  -0.18563475  0.029538703   -1.5041384    1.3185036      8192000 
   50700   0.99881285   -1.5058871   -1.5058871  -0.18928956  0.026032801   -1.5058871    1.3165976      8192000 
   50800    0.9997097   -1.5061494   -1.5061494  -0.18836964  0.020214598   -1.5061494    1.3177798      8192000 
   50900    1.0010552   -1.5068523   -1.5068523  -0.18729886  0.025825495   -1.5068523    1.3195534      8192000 
   51000   0.99934393   -1.5069643   -1.5069643  -0.18966673  0.025349076   -1.5069643    1.3172976      8192000 
   51100   0.99820927   -1.5073372   -1.5073372  -0.19153529  0.020310704   -1.5073372     1.315802      8192000 
   51200   0.99959644   -1.5066141   -1.5066141   -0.1889836  0.025821501   -1.5066141    1.3176305      8192000 
   51300   0.99981796    -1.506111    -1.506111  -0.18818854  0.031553629    -1.506111    1.3179225      8192000 
   51400    1.0006595   -1.5066306   -1.5066306  -0.18759886  0.025495138   -1.5066306    1.3190318      8192000 
   51500    1.0006227   -1.5062861   -1.5062861  -0.18730287  0.025368258   -1.5062861    1.3189832      8192000 
   51600   0.99941341   -1.5050555   -1.5050555  -0.18766631  0.027461332   -1.5050555    1.3173892      8192000 
   51700   0.99933516   -1.5067524   -1.5067524  -0.18946631  0.028914402   -1.5067524    1.3172861      8192000 
   51800    0.9988372   -1.5071906   -1.5071906  -0.19056094   0.02550421   -1.5071906    1.3166297      8192000 
   51900    1.0001939   -1.5076773   -1.5076773  -0.18925922  0.019509963   -1.5076773    1.3184181      8192000 
   52000    1.0022139   -1.5079878   -1.5079878  -0.18690712  0.026116284   -1.5079878    1.3210807      8192000 
   52100    1.0005586   -1.5085007   -1.5085007  -0.18960192  0.029634415   -1.5085007    1.3188988      8192000 
   52200   0.99894262   -1.5083196   -1.5083196    -0.191551  0.028193365   -1.5083196    1.3167686      8192000 
   52300    1.0005014    -1.509309    -1.509309  -0.19048571  0.020555965    -1.509309    1.3188233      8192000 
   52400    1.0016474   -1.5102225   -1.5102225  -0.18988855  0.024411378   -1.5102225     1.320334      8192000 
   52500   0.99944285   -1.5102604   -1.5102604   -0.1928324  0.026560977   -1.5102604     1.317428      8192000 
   52600   0.99925486   -1.5118351   -1.5118351  -0.19465485  0.028958317   -1.5118351    1.3171802      8192000 
   52700   0.99986487    -1.511738    -1.511738  -0.19375367  0.030095109    -1.511738    1.3179843      8192000 
   52800    1.0003142   -1.5122889   -1.5122889  -0.19371227  0.017027188   -1.5122889    1.3185766      8192000 
   52900   0.99980354   -1.5121774   -1.5121774  -0.19427393  0.026591675   -1.5121774    1.3179035      8192000 
   53000    1.0003165   -1.5130465   -1.5130465  -0.19446681  0.026569339   -1.5130465    1.3185797      8192000 
   53100    1.0003149   -1.5133671   -1.5133671  -0.19478966  0.024333927   -1.5133671    1.3185775      8192000 
   53200   0.99990984   -1.5135536   -1.5135536  -0.19551004  0.021419289   -1.5135536    1.3180436      8192000 
   53300   0.99937949   -1.5144831   -1.5144831   -0.1971386  0.028907254   -1.5144831    1.3173445      8192000 
   53400   0.99882908   -1.5156101   -1.5156101  -0.19899109  0.030781253   -1.5156101     1.316619      8192000 
   53500   0.99982924   -1.5146872   -1.5146872  -0.19674983  0.025484303   -1.5146872    1.3179373      8192000 
   53600    1.0017603   -1.5146227   -1.5146227  -0.19413991  0.022790522   -1.5146227    1.3204828      8192000 
   53700    1.0001176   -1.5141838   -1.5141838  -0.19586634  0.027896238   -1.5141838    1.3183175      8192000 
   53800    1.0001561   -1.5156081   -1.5156081  -0.19723983  0.027437409   -1.5156081    1.3183682      8192000 
   53900   0.99939818   -1.5145503   -1.5145503  -0.19718116  0.023805336   -1.5145503    1.3173691      8192000 
   54000   0.99989106   -1.5144552   -1.5144552  -0.19643636  0.023990209   -1.5144552    1.3180188      8192000 
   54100    1.0007939   -1.5155237   -1.5155237  -0.19631478   0.02883389   -1.5155237    1.3192089      8192000 
   54200    1.0000284   -1.5150491   -1.5150491  -0.19684923  0.028927698   -1.5150491    1.3181998      8192000 
   54300    1.0001411   -1.5158223   -1.5158223  -0.19747385  0.024341779   -1.5158223    1.3183484      8192000 
   54400    1.0000427   -1.5158372   -1.5158372  -0.19761844  0.021720896   -1.5158372    1.3182187      8192000 
   54500   0.99990379    -1.514325    -1.514325  -0.19628937   0.02841653    -1.514325    1.3180356      8192000 
   54600    1.0015914    -1.515033    -1.515033   -0.1947729  0.024778472    -1.515033    1.3202601      8192000 
   54700    1.0004409   -1.5147442   -1.5147442  -0.19600054  0.022133963   -1.5147442    1.3187436      8192000 
   54800   0.99779957   -1.5142434   -1.5142434  -0.19898155  0.024909422   -1.5142434    1.3152619      8192000 
   54900   0.99930059    -1.514983    -1.514983  -0.19774247  0.027334159    -1.514983    1.3172405      8192000 
   55000    1.0012303   -1.5154755   -1.5154755  -0.19569133  0.029709191   -1.5154755    1.3197842      8192000 
   55100    1.0008386    -1.515785    -1.515785  -0.19651709  0.028266242    -1.515785    1.3192679      8192000 
   55200    1.0011362   -1.5174498   -1.5174498  -0.19778971  0.020153948   -1.5174498    1.3196601      8192000 
   55300    0.9992526   -1.5169294   -1.5169294  -0.19975221  0.026197977   -1.5169294    1.3171772      8192000 
   55400   0.99865462   -1.5167238   -1.5167238  -0.20033481  0.030295316   -1.5167238     1.316389      8192000 
   55500    1.0003135   -1.5170546   -1.5170546  -0.19847898  0.031291155   -1.5170546    1.3185756      8192000 
   55600    1.0034563   -1.5181407   -1.5181407  -0.19542236  0.024353998   -1.5181407    1.3227183      8192000 
   55700    1.0008232   -1.5180978   -1.5180978  -0.19885021  0.022332685   -1.5180978    1.3192476      8192000 
   55800   0.99976235   -1.5186678   -1.5186678  -0.20081864  0.024721445   -1.5186678    1.3178492      8192000 
   55900   0.99939665   -1.5192372   -1.5192372  -0.20187007  0.025472799   -1.5192372    1.3173671      8192000 
   56000   0.99938096   -1.5202045   -1.5202045  -0.20285811  0.024040881   -1.5202045    1.3173464      8192000 
   56100   0.99986663   -1.5210953   -1.5210953  -0.20310865  0.026575931   -1.5210953    1.3179866      8192000 
   56200    1.0003558   -1.5204818   -1.5204818  -0.20185038   0.03087213   -1.5204818    1.3186314      8192000 
   56300    1.0015333   -1.5210408   -1.5210408  -0.20085728  0.024433599   -1.5210408    1.3201835      8192000 
   56400   0.99961661   -1.5218894   -1.5218894   -0.2042323   0.02198089   -1.5218894    1.3176571      8192000 
   56500   0.99883822   -1.5223882   -1.5223882  -0.20575719  0.026521595   -1.5223882     1.316631      8192000 
   56600   0.99983266   -1.5223368   -1.5223368  -0.20439491  0.030097029   -1.5223368    1.3179418      8192000 
   56700     1.001024   -1.5233069   -1.5233069  -0.20379469  0.032156408   -1.5233069    1.3195122      8192000 
   56800   0.99884756   -1.5239974   -1.5239974  -0.20735406  0.029197375   -1.5239974    1.3166433      8192000 
   56900   0.99776878   -1.5240442   -1.5240442  -0.20882293  0.018252832   -1.5240442    1.3152213      8192000 
   57000    1.0003256   -1.5248676   -1.5248676  -0.20627599  0.027170085   -1.5248676    1.3185917      8192000 
   57100    1.0007717   -1.5242811   -1.5242811  -0.20510148  0.031230196   -1.5242811    1.3191797      8192000 
   57200    1.0005554   -1.5254506   -1.5254506   -0.2065561  0.018441829   -1.5254506    1.3188945      8192000 
   57300    0.9996016   -1.5264106   -1.5264106  -0.20877331  0.026308905   -1.5264106    1.3176373      8192000 
   57400    1.0002138   -1.5278668   -1.5278668  -0.20942259  0.026020437   -1.5278668    1.3184442      8192000 
   57500   0.99987941   -1.5269248   -1.5269248  -0.20892138  0.025767246   -1.5269248    1.3180035      8192000 
   57600   0.99921096   -1.5258953   -1.5258953  -0.20877292     0.022313   -1.5258953    1.3171223      8192000 
   57700   0.99953178   -1.5252507   -1.5252507  -0.20770546  0.024553863   -1.5252507    1.3175452      8192000 
   57800    1.0015813   -1.5277688   -1.5277688  -0.20752196  0.029679631   -1.5277688    1.3202469      8192000 
   57900   0.99925885   -1.5282155   -1.5282155  -0.21103004  0.027582984   -1.5282155    1.3171855      8192000 
   58000   0.99823878   -1.5282964   -1.5282964  -0.21245558  0.024098273   -1.5282964    1.3158409      8192000 
   58100    1.0003626   -1.5290695   -1.5290695  -0.21042905  0.022217347   -1.5290695    1.3186404      8192000 
   58200    1.0007658   -1.5284903   -1.5284903  -0.20931842  0.026842127   -1.5284903    1.3191719      8192000 
   58300     1.000051   -1.5274048   -1.5274048  -0.20917512  0.025108756   -1.5274048    1.3182297      8192000 
   58400   0.99979763   -1.5261086   -1.5261086  -0.20821294    0.0283233   -1.5261086    1.3178957      8192000 
   58500    1.0032358   -1.5260624   -1.5260624  -0.20363458  0.033477971   -1.5260624    1.3224278      8192000 
   58600    1.0014044   -1.5261349   -1.5261349   -0.2061213  0.020869053   -1.5261349    1.3200136      8192000 
   58700   0.99980944   -1.5265926   -1.5265926  -0.20868135  0.025715793   -1.5265926    1.3179112      8192000 
   58800   0.99979141   -1.5272763   -1.5272763  -0.20938882  0.028879441   -1.5272763    1.3178875      8192000 
   58900    1.0001439   -1.5282853   -1.5282853  -0.20993329  0.024606858   -1.5282853    1.3183521      8192000 
   59000   0.99997126   -1.5295498   -1.5295498  -0.21142529  0.022700662   -1.5295498    1.3181245      8192000 
   59100    0.9983261   -1.5283489   -1.5283489  -0.21239291  0.029349767   -1.5283489     1.315956      8192000 
   59200    1.0003248   -1.5273608   -1.5273608  -0.20877022  0.028629769   -1.5273608    1.3185906      8192000 
   59300    1.0009113   -1.5269085   -1.5269085  -0.20754481  0.020989651   -1.5269085    1.3193637      8192000 
   59400   0.99970919   -1.5274979   -1.5274979  -0.20971882    0.0263841   -1.5274979    1.3177791      8192000 
   59500   0.99942731    -1.528785    -1.528785  -0.21137746  0.027087897    -1.528785    1.3174075      8192000 
   59600   0.99976955   -1.5289359   -1.5289359  -0.21107729  0.024116685   -1.5289359    1.3178587      8192000 
   59700    1.0011779   -1.5304987   -1.5304987  -0.21078362  0.024579638   -1.5304987    1.3197151      8192000 
   59800   0.99862459   -1.5309431   -1.5309431  -0.21459374  0.025983063   -1.5309431    1.3163494      8192000 
   59900   0.99849321   -1.5319878   -1.5319878  -0.21581157  0.029072846   -1.5319878    1.3161762      8192000 
   60000    1.0005892   -1.5320566   -1.5320566  -0.21311755  0.033590017   -1.5320566    1.3189391      8192000 
   60100    1.0014995    -1.532055    -1.532055  -0.21191598  0.022520994    -1.532055     1.320139      8192000 
   60200    1.0000423   -1.5326922   -1.5326922  -0.21447409  0.024397178   -1.5326922    1.3182181      8192000 
   60300    0.9991597   -1.5328491   -1.5328491  -0.21579433  0.025495749   -1.5328491    1.3170548      8192000 
   60400   0.99957673   -1.5326518   -1.5326518  -0.21504731  0.025696362   -1.5326518    1.3176045      8192000 
   60500     1.000614    -1.532725    -1.532725  -0.21375328   0.02517077    -1.532725    1.3189717      8192000 
   60600    1.0007693   -1.5332528   -1.5332528  -0.21407635  0.024622676   -1.5332528    1.3191764      8192000 
   60700    0.9975345   -1.5325246   -1.5325246  -0.21761206  0.027484391   -1.5325246    1.3149125      8192000 
   60800   0.99886462   -1.5333148   -1.5333148  -0.21664904  0.027590677   -1.5333148    1.3166658      8192000 
   60900    1.0005407   -1.5326834   -1.5326834  -0.21380816  0.028701956   -1.5326834    1.3188752      8192000 
   61000   0.99991382   -1.5319441   -1.5319441  -0.21389528  0.027037861   -1.5319441    1.3180488      8192000 
   61100   0.99980016   -1.5318335   -1.5318335  -0.21393448  0.026551222   -1.5318335     1.317899      8192000 
   61200      1.00031   -1.5321528   -1.5321528  -0.21358183  0.028420394   -1.5321528     1.318571      8192000 
   61300    1.0005461   -1.5317328   -1.5317328  -0.21285056  0.022052736   -1.5317328    1.3188823      8192000 
   61400    1.0000609     -1.53156     -1.53156  -0.21331738   0.02469117     -1.53156    1.3182427      8192000 
   61500    1.0005924   -1.5329537   -1.5329537  -0.21401045  0.029735073   -1.5329537    1.3189433      8192000 
   61600   0.99959643   -1.5324425   -1.5324425  -0.21481202  0.026217744   -1.5324425    1.3176304      8192000 
   61700   0.99926528    -1.532013    -1.532013  -0.21481902  0.021945899    -1.532013    1.3171939      8192000 
   61800    1.0013713   -1.5336009   -1.5336009  -0.21363089  0.027092182   -1.5336009      1.31997      8192000 
   61900   0.99973725   -1.5325447   -1.5325447   -0.2147286  0.028836921   -1.5325447    1.3178161      8192000 
   62000   0.99935303    -1.534948    -1.534948   -0.2176384  0.025778651    -1.534948    1.3173096      8192000 
   62100   0.99858406   -1.5344803   -1.5344803  -0.21818426  0.023242565   -1.5344803     1.316296      8192000 
   62200    1.0009397   -1.5354582   -1.5354582   -0.2160572  0.027831644   -1.5354582     1.319401      8192000 
   62300    1.0025615   -1.5345438   -1.5345438  -0.21300487  0.032007763   -1.5345438    1.3215389      8192000 
   62400     1.003265   -1.5341134   -1.5341134  -0.21164714  0.022387299   -1.5341134    1.3224663      8192000 
   62500   0.99983848   -1.5337448   -1.5337448  -0.21579526  0.025602084   -1.5337448    1.3179495      8192000 
   62600   0.99940912   -1.5337681   -1.5337681  -0.21638454  0.030659385   -1.5337681    1.3173835      8192000 
   62700    1.0000461   -1.5338778   -1.5338778  -0.21565464  0.024127421   -1.5338778    1.3182232      8192000 
   62800    1.0002315   -1.5325783   -1.5325783   -0.2141107  0.024353972   -1.5325783    1.3184676      8192000 
   62900    1.0017525   -1.5327928   -1.5327928  -0.21232029  0.029675611   -1.5327928    1.3204725      8192000 
   63000    1.0002492   -1.5328127   -1.5328127  -0.21432179  0.028195511   -1.5328127    1.3184909      8192000 
   63100   0.99913588   -1.5345466   -1.5345466  -0.21752325  0.022662037   -1.5345466    1.3170234      8192000 
   63200   0.99940324   -1.5345862   -1.5345862  -0.21721037  0.024998127   -1.5345862    1.3173758      8192000 
   63300     1.000745   -1.5353394   -1.5353394  -0.21619504   0.02424114   -1.5353394    1.3191444      8192000 
   63400     1.000305   -1.5347191   -1.5347191  -0.21615467  0.028885111   -1.5347191    1.3185644      8192000 
   63500   0.99901599   -1.5351075   -1.5351075  -0.21824214  0.034157053   -1.5351075    1.3168653      8192000 
   63600    0.9994051   -1.5357127   -1.5357127   -0.2183345  0.026887307   -1.5357127    1.3173782      8192000 
   63700   0.99972643    -1.533116    -1.533116  -0.21531419  0.024878961    -1.533116    1.3178018      8192000 
   63800    1.0003552   -1.5333095   -1.5333095  -0.21467882  0.027433439   -1.5333095    1.3186307      8192000 
   63900   0.99997459   -1.5338939   -1.5338939  -0.21576501  0.031044692   -1.5338939    1.3181289      8192000 
   64000   0.99923846    -1.533367    -1.533367  -0.21620836  0.029212066    -1.533367    1.3171586      8192000 
   64100    1.0002244   -1.5346718   -1.5346718  -0.21621365  0.019436578   -1.5346718    1.3184582      8192000 
   64200    0.9995212    -1.533849    -1.533849  -0.21631771  0.026300947    -1.533849    1.3175313      8192000 
   64300    1.0005453   -1.5354994   -1.5354994  -0.21661817  0.027439886   -1.5354994    1.3188812      8192000 
   64400    1.0004729   -1.5364303   -1.5364303  -0.21764449  0.022553274   -1.5364303    1.3187858      8192000 
   64500   0.99890256   -1.5360487   -1.5360487  -0.21933293  0.024869076   -1.5360487    1.3167158      8192000 
   64600   0.99938622   -1.5365273   -1.5365273  -0.21917396  0.028818728   -1.5365273    1.3173534      8192000 
   64700    1.0018215   -1.5365403   -1.5365403   -0.2159769  0.028541838   -1.5365403    1.3205634      8192000 
   64800    1.0009307   -1.5363341   -1.5363341  -0.21694494  0.028555172   -1.5363341    1.3193892      8192000 
   64900   0.99934906   -1.5369989   -1.5369989  -0.21969451  0.029406889   -1.5369989    1.3173044      8192000 
   65000   0.99991933   -1.5375109   -1.5375109  -0.21945485  0.023236917   -1.5375109    1.3180561      8192000 
   65100    1.0001009   -1.5370106   -1.5370106  -0.21871521    0.0258173   -1.5370106    1.3182954      8192000 
   65200   0.99984271   -1.5364666   -1.5364666  -0.21851152  0.028152502   -1.5364666    1.3179551      8192000 
   65300    1.0006372   -1.5376046   -1.5376046  -0.21860223   0.02322887   -1.5376046    1.3190024      8192000 
   65400   0.99967892   -1.5382061   -1.5382061  -0.22046693  0.024021654   -1.5382061    1.3177392      8192000 
   65500   0.99840769   -1.5370815   -1.5370815  -0.22101798  0.028414523   -1.5370815    1.3160635      8192000 
   65600    1.0013069   -1.5381475   -1.5381475  -0.21826243  0.028444057   -1.5381475    1.3198851      8192000 
   65700    1.0015369   -1.5379088   -1.5379088  -0.21772049  0.024530721   -1.5379088    1.3201883      8192000 
   65800   0.99955553   -1.5377763   -1.5377763  -0.22019971  0.025297605   -1.5377763    1.3175765      8192000 
   65900   0.99983258   -1.5384151   -1.5384151  -0.22047333  0.029196036   -1.5384151    1.3179417      8192000 
   66000   0.99943629   -1.5374253   -1.5374253  -0.22000598  0.028784563   -1.5374253    1.3174194      8192000 
   66100    1.0009054   -1.5380616   -1.5380616  -0.21870567  0.027467211   -1.5380616    1.3193559      8192000 
   66200    1.0008093   -1.5388031   -1.5388031  -0.21957387  0.023278334   -1.5388031    1.3192292      8192000 
   66300   0.99822302   -1.5391785   -1.5391785  -0.22335842  0.025670914   -1.5391785    1.3158201      8192000 
   66400   0.99918767   -1.5398411   -1.5398411   -0.2227494  0.028628094   -1.5398411    1.3170916      8192000 
   66500     1.001032    -1.540388    -1.540388  -0.22086529  0.027665431    -1.540388    1.3195227      8192000 
   66600    1.0009192   -1.5413293   -1.5413293  -0.22195526  0.025404903   -1.5413293    1.3193741      8192000 
   66700    1.0000189   -1.5416187   -1.5416187  -0.22343136  0.022608642   -1.5416187    1.3181874      8192000 
[...]
  983700    1.0003351   -1.3375653   -1.3375653 -0.018961168  0.034669258   -1.3375653    1.3186042      8192000 
  983800    1.0003088   -1.3367329   -1.3367329 -0.018163479  0.034793889   -1.3367329    1.3185694      8192000 
  983900    1.0004944   -1.3354892   -1.3354892 -0.016674977  0.035559595   -1.3354892    1.3188142      8192000 
  984000    1.0011266   -1.3363544   -1.3363544 -0.016706953  0.034160891   -1.3363544    1.3196474      8192000 
  984100   0.99935478   -1.3364776   -1.3364776 -0.019165674  0.034544903   -1.3364776    1.3173119      8192000 
  984200   0.99843833   -1.3367104   -1.3367104 -0.020606479  0.035062483   -1.3367104    1.3161039      8192000 
  984300    1.0010008   -1.3376638   -1.3376638 -0.018182137  0.034782827   -1.3376638    1.3194817      8192000 
  984400    1.0022167   -1.3368121   -1.3368121 -0.015727743  0.034516375   -1.3368121    1.3210844      8192000 
  984500   0.99986191   -1.3357218   -1.3357218 -0.017741419  0.034741209   -1.3357218    1.3179804      8192000 
  984600   0.99962304   -1.3363403   -1.3363403 -0.018674736  0.034327372   -1.3363403    1.3176655      8192000 
  984700   0.99969795   -1.3360814   -1.3360814 -0.018317119  0.034891024   -1.3360814    1.3177643      8192000 
  984800    1.0004435   -1.3360992   -1.3360992 -0.017352131  0.034812062   -1.3360992    1.3187471      8192000 
  984900    1.0008428   -1.3359696   -1.3359696 -0.016696252   0.03465156   -1.3359696    1.3192734      8192000 
  985000    1.0000373   -1.3363972   -1.3363972 -0.018185649  0.035576156   -1.3363972    1.3182116      8192000 
  985100    0.9982771   -1.3361462   -1.3361462 -0.020254871  0.035290499   -1.3361462    1.3158914      8192000 
  985200     0.999193   -1.3369645   -1.3369645 -0.019865853  0.036600096   -1.3369645    1.3170987      8192000 
  985300    1.0011315   -1.3368546   -1.3368546 -0.017200712  0.035503596   -1.3368546    1.3196539      8192000 
  985400    1.0019346   -1.3371629   -1.3371629 -0.016450345  0.034913416   -1.3371629    1.3207125      8192000 
  985500   0.99866424   -1.3372096   -1.3372096 -0.020807917   0.03396562   -1.3372096    1.3164017      8192000 
  985600   0.99862536   -1.3370301   -1.3370301 -0.020679623  0.035586966   -1.3370301    1.3163504      8192000 
  985700    1.0003277   -1.3376639   -1.3376639  -0.01906942  0.035418025   -1.3376639    1.3185944      8192000 
  985800    1.0006121   -1.3381657   -1.3381657 -0.019196354  0.034975732   -1.3381657    1.3189693      8192000 
  985900   0.99873551   -1.3384571   -1.3384571 -0.021961476  0.035788298   -1.3384571    1.3164956      8192000 
  986000   0.99859585   -1.3391613   -1.3391613  -0.02284976  0.034608197   -1.3391613    1.3163115      8192000 
  986100    1.0012259   -1.3381618   -1.3381618 -0.018383377  0.035460758   -1.3381618    1.3197784      8192000 
  986200    1.0013323   -1.3383281   -1.3383281 -0.018409486  0.035685375   -1.3383281    1.3199186      8192000 
  986300   0.99974632   -1.3386818   -1.3386818 -0.020853768  0.034799373   -1.3386818     1.317828      8192000 
  986400   0.99866995   -1.3385476   -1.3385476 -0.022138376  0.035047235   -1.3385476    1.3164092      8192000 
  986500   0.99967173   -1.3379609   -1.3379609 -0.020231179  0.035751413   -1.3379609    1.3177297      8192000 
  986600    1.0012934    -1.337718    -1.337718 -0.017850693  0.034836443    -1.337718    1.3198673      8192000 
  986700    1.0010026   -1.3381088   -1.3381088 -0.018624734  0.034477451   -1.3381088     1.319484      8192000 
  986800   0.99968005   -1.3374761   -1.3374761 -0.019735414  0.034850004   -1.3374761    1.3177407      8192000 
  986900   0.99942715   -1.3369684   -1.3369684 -0.019561063  0.033317729   -1.3369684    1.3174073      8192000 
  987000    1.0016583   -1.3374379   -1.3374379 -0.017089548  0.034007706   -1.3374379    1.3203483      8192000 
  987100    1.0023011   -1.3370306   -1.3370306 -0.015834934  0.036094248   -1.3370306    1.3211956      8192000 
  987200   0.99882966   -1.3369954   -1.3369954 -0.020375663  0.035105676   -1.3369954    1.3166197      8192000 
  987300   0.99851191   -1.3365432   -1.3365432 -0.020342348  0.034681887   -1.3365432    1.3162009      8192000 
  987400    1.0002824   -1.3362598   -1.3362598 -0.017725114  0.035543319   -1.3362598    1.3185347      8192000 
  987500     1.000379   -1.3358551   -1.3358551 -0.017193077  0.034792543   -1.3358551     1.318662      8192000 
  987600   0.99928991   -1.3361988   -1.3361988 -0.018972403  0.035782441   -1.3361988    1.3172264      8192000 
  987700   0.99757756   -1.3361499   -1.3361499 -0.021180609  0.033740213   -1.3361499    1.3149693      8192000 
  987800   0.99947494   -1.3363475   -1.3363475 -0.018877166  0.033538772   -1.3363475    1.3174703      8192000 
  987900    1.0016995   -1.3368577   -1.3368577 -0.016454979  0.034841761   -1.3368577    1.3204027      8192000 
  988000    1.0000969   -1.3370173   -1.3370173 -0.018727186  0.035781125   -1.3370173    1.3182901      8192000 
  988100   0.99871155   -1.3369013   -1.3369013 -0.020437263  0.034843591   -1.3369013     1.316464      8192000 
  988200   0.99945798   -1.3369558   -1.3369558 -0.019507884  0.035849895   -1.3369558     1.317448      8192000 
  988300    1.0003096   -1.3365163   -1.3365163 -0.017945857  0.035374532   -1.3365163    1.3185705      8192000 
  988400    1.0018661   -1.3377133   -1.3377133 -0.017091019  0.033511513   -1.3377133    1.3206223      8192000 
  988500   0.99967658   -1.3375136   -1.3375136 -0.019777511  0.035163058   -1.3375136    1.3177361      8192000 
  988600   0.99787343   -1.3372899   -1.3372899 -0.021930601  0.035041674   -1.3372899    1.3153593      8192000 
  988700    1.0006256   -1.3387651   -1.3387651 -0.019777941  0.035632142   -1.3387651    1.3189871      8192000 
  988800    1.0013545   -1.3387632   -1.3387632 -0.018815296  0.035581476   -1.3387632    1.3199479      8192000 
  988900   0.99852181   -1.3374691   -1.3374691 -0.021255143  0.035783894   -1.3374691    1.3162139      8192000 
  989000   0.99900476   -1.3386975   -1.3386975 -0.021846925  0.033411101   -1.3386975    1.3168505      8192000 
  989100    1.0015471   -1.3381437   -1.3381437 -0.017942005  0.034233341   -1.3381437    1.3202017      8192000 
  989200    1.0013214   -1.3371375   -1.3371375 -0.017233162  0.035182694   -1.3371375    1.3199043      8192000 
  989300    1.0000336    -1.338336    -1.338336 -0.020129264  0.035995358    -1.338336    1.3182067      8192000 
  989400   0.99931921   -1.3388045   -1.3388045 -0.021539442  0.035941439   -1.3388045     1.317265      8192000 
  989500   0.99949299   -1.3390038   -1.3390038  -0.02150973  0.034726814   -1.3390038    1.3174941      8192000 
  989600    1.0008331     -1.33874     -1.33874 -0.019479423  0.033745634     -1.33874    1.3192605      8192000 
  989700    1.0026444   -1.3385703   -1.3385703 -0.016922064  0.036911148   -1.3385703    1.3216482      8192000 
  989800    1.0003033   -1.3388595   -1.3388595 -0.020297249  0.036433701   -1.3388595    1.3185623      8192000 
  989900   0.99934475   -1.3393522   -1.3393522 -0.022053528  0.035172209   -1.3393522    1.3172987      8192000 
  990000   0.99918509   -1.3389807   -1.3389807 -0.021892507  0.034914265   -1.3389807    1.3170882      8192000 
  990100    1.0003796   -1.3395782   -1.3395782 -0.020915365  0.034801367   -1.3395782    1.3186628      8192000 
  990200    1.0006422   -1.3385498   -1.3385498 -0.019540803  0.034944005   -1.3385498     1.319009      8192000 
  990300    1.0004317   -1.3379389   -1.3379389 -0.019207493  0.035055861   -1.3379389    1.3187314      8192000 
  990400   0.99878444   -1.3387553   -1.3387553 -0.022195143  0.034735764   -1.3387553    1.3165601      8192000 
  990500   0.99770583   -1.3370129   -1.3370129 -0.021874523  0.034825532   -1.3370129    1.3151383      8192000 
  990600    1.0002826   -1.3371898   -1.3371898 -0.018654817  0.034146585   -1.3371898     1.318535      8192000 
  990700    1.0007447   -1.3376246   -1.3376246 -0.018480571  0.033695785   -1.3376246    1.3191441      8192000 
  990800   0.99931012    -1.336775    -1.336775 -0.019521925  0.038315264    -1.336775    1.3172531      8192000 
  990900   0.99899084   -1.3368109   -1.3368109 -0.019978664  0.033966508   -1.3368109    1.3168322      8192000 
  991000    1.0008679   -1.3370172   -1.3370172 -0.017710804   0.03489687   -1.3370172    1.3193064      8192000 
  991100    1.0020722   -1.3375807   -1.3375807 -0.016686796  0.034604321   -1.3375807    1.3208939      8192000 
  991200    1.0001269    -1.338387    -1.338387 -0.020057331  0.035209206    -1.338387    1.3183297      8192000 
  991300   0.99894414   -1.3379314   -1.3379314 -0.021160778  0.034768169   -1.3379314    1.3167706      8192000 
  991400   0.99936004   -1.3374126   -1.3374126 -0.020093725  0.035139317   -1.3374126    1.3173188      8192000 
  991500     1.000555   -1.3374293   -1.3374293 -0.018535311  0.034966266   -1.3374293     1.318894      8192000 
  991600    1.0003174   -1.3378285   -1.3378285 -0.019247614  0.035532273   -1.3378285    1.3185809      8192000 
  991700   0.99743767   -1.3382103   -1.3382103 -0.023425464  0.035840427   -1.3382103    1.3147849      8192000 
  991800   0.99913642   -1.3389006   -1.3389006 -0.021876513   0.03489175   -1.3389006    1.3170241      8192000 
  991900    1.0002822   -1.3382004   -1.3382004 -0.019665997  0.034366544   -1.3382004    1.3185344      8192000 
  992000    1.0002918   -1.3378211   -1.3378211 -0.019273981  0.035007305   -1.3378211    1.3185471      8192000 
  992100   0.99942502   -1.3370169   -1.3370169 -0.019612388  0.033492382   -1.3370169    1.3174045      8192000 
  992200   0.99981722   -1.3361494   -1.3361494 -0.018227943  0.034470479   -1.3361494    1.3179215      8192000 
  992300    1.0027035   -1.3370687   -1.3370687 -0.015342715  0.035077757   -1.3370687     1.321726      8192000 
  992400    1.0011679   -1.3374757   -1.3374757  -0.01777369  0.035832697   -1.3374757     1.319702      8192000 
  992500   0.99937258   -1.3375675   -1.3375675 -0.020232168  0.037705161   -1.3375675    1.3173354      8192000 
  992600    0.9989775   -1.3369581   -1.3369581 -0.020143537   0.03610713   -1.3369581    1.3168146      8192000 
  992700    1.0009217   -1.3378145   -1.3378145 -0.018437078  0.032016153   -1.3378145    1.3193774      8192000 
  992800    1.0016111   -1.3377672   -1.3377672 -0.017481003  0.034749526   -1.3377672    1.3202862      8192000 
  992900   0.99876206   -1.3369305   -1.3369305 -0.020399901  0.034699605   -1.3369305    1.3165306      8192000 
  993000   0.99841794   -1.3376887   -1.3376887 -0.021611709  0.034413057   -1.3376887     1.316077      8192000 
  993100    1.0006219   -1.3381816   -1.3381816 -0.019199367  0.037751114   -1.3381816    1.3189822      8192000 
  993200    1.0004693   -1.3367795   -1.3367795 -0.017998426  0.035612163   -1.3367795    1.3187811      8192000 
  993300    1.0000712   -1.3370792   -1.3370792 -0.018822897   0.03295026   -1.3370792    1.3182563      8192000 
  993400   0.99906145   -1.3368294   -1.3368294 -0.019904147  0.034278426   -1.3368294    1.3169253      8192000 
  993500   0.99802556   -1.3364975   -1.3364975 -0.020937744  0.036261339   -1.3364975    1.3155598      8192000 
  993600    1.0000803   -1.3369416   -1.3369416 -0.018673373  0.035588598   -1.3369416    1.3182683      8192000 
  993700    1.0014252    -1.337231    -1.337231 -0.017189893  0.033575564    -1.337231    1.3200411      8192000 
  993800   0.99967708   -1.3370991   -1.3370991 -0.019362371  0.033156814   -1.3370991    1.3177368      8192000 
  993900   0.99925689   -1.3385432   -1.3385432 -0.021360349  0.034424574   -1.3385432    1.3171829      8192000 
  994000   0.99954172   -1.3383953   -1.3383953 -0.020836956  0.035312043   -1.3383953    1.3175583      8192000 
  994100    1.0015125   -1.3381489   -1.3381489 -0.017992831  0.035056188   -1.3381489    1.3201561      8192000 
  994200    1.0018552   -1.3381235   -1.3381235 -0.017515545  0.034396625   -1.3381235    1.3206079      8192000 
  994300     0.999106   -1.3394295   -1.3394295 -0.022445506  0.035032542   -1.3394295     1.316984      8192000 
  994400   0.99905397    -1.338982    -1.338982 -0.022066636  0.035115634    -1.338982    1.3169154      8192000 
  994500    1.0007257   -1.3385943   -1.3385943 -0.019475239  0.035325961   -1.3385943    1.3191191      8192000 
  994600    1.0017002   -1.3387109   -1.3387109 -0.018307281  0.032799193   -1.3387109    1.3204036      8192000 
  994700    0.9995659   -1.3380918   -1.3380918 -0.020501626    0.0358999   -1.3380918    1.3175902      8192000 
  994800   0.99887196   -1.3391156   -1.3391156 -0.022440114  0.035706718   -1.3391156    1.3166755      8192000 
  994900   0.99906847   -1.3383634   -1.3383634 -0.021428884  0.035672038   -1.3383634    1.3169345      8192000 
  995000   0.99971852   -1.3381571   -1.3381571 -0.020365679   0.03506163   -1.3381571    1.3177914      8192000 
  995100    1.0003059   -1.3390286   -1.3390286 -0.020462859  0.035561894   -1.3390286    1.3185657      8192000 
  995200   0.99953799   -1.3392038   -1.3392038 -0.021650372   0.03542645   -1.3392038    1.3175534      8192000 
  995300   0.99835817   -1.3389807   -1.3389807 -0.022982474  0.034746628   -1.3389807    1.3159982      8192000 
  995400    1.0006554   -1.3393265   -1.3393265 -0.020300224  0.034414965   -1.3393265    1.3190263      8192000 
  995500     1.001512   -1.3384407   -1.3384407 -0.018285202  0.035219617   -1.3384407    1.3201555      8192000 
  995600    1.0003152   -1.3388061   -1.3388061 -0.020228133  0.035960436   -1.3388061    1.3185779      8192000 
  995700   0.99945621   -1.3395443   -1.3395443 -0.022098657  0.035331477   -1.3395443    1.3174456      8192000 
  995800   0.99919416   -1.3387578   -1.3387578 -0.021657627  0.035687684   -1.3387578    1.3171002      8192000 
  995900    1.0001407   -1.3386989   -1.3386989 -0.020350969  0.034125517   -1.3386989    1.3183479      8192000 
  996000    0.9996044   -1.3376588   -1.3376588 -0.020017829  0.034110312   -1.3376588     1.317641      8192000 
  996100   0.99999204   -1.3385132   -1.3385132 -0.020361285  0.035565269   -1.3385132    1.3181519      8192000 
  996200    1.0001021   -1.3389635   -1.3389635 -0.020666443  0.035877566   -1.3389635     1.318297      8192000 
  996300   0.99978533   -1.3384514   -1.3384514 -0.020571922  0.035206025   -1.3384514    1.3178795      8192000 
  996400    1.0017809    -1.338166    -1.338166 -0.017656001  0.034749514    -1.338166      1.32051      8192000 
  996500    1.0023097   -1.3378015   -1.3378015 -0.016594549  0.034114247   -1.3378015    1.3212069      8192000 
  996600   0.99976666   -1.3376969   -1.3376969 -0.019842059  0.034892171   -1.3376969    1.3178549      8192000 
  996700   0.99893166   -1.3377485   -1.3377485 -0.020994273  0.034460749   -1.3377485    1.3167542      8192000 
  996800    1.0006562   -1.3382195   -1.3382195 -0.019192117  0.033517244   -1.3382195    1.3190274      8192000 
  996900    1.0017859   -1.3380221   -1.3380221 -0.017505556   0.03456132   -1.3380221    1.3205166      8192000 
  997000   0.99974512   -1.3368458   -1.3368458 -0.019019357  0.034100497   -1.3368458    1.3178264      8192000 
  997100   0.99799519   -1.3374535   -1.3374535 -0.021933747  0.033986194   -1.3374535    1.3155198      8192000 
  997200   0.99969995   -1.3374445   -1.3374445 -0.019677591  0.035240712   -1.3374445    1.3177669      8192000 
  997300    1.0013239   -1.3382349   -1.3382349 -0.018327344  0.036107257   -1.3382349    1.3199076      8192000 
  997400   0.99985337   -1.3378509   -1.3378509 -0.019881739  0.034800398   -1.3378509    1.3179691      8192000 
  997500   0.99943811   -1.3380336   -1.3380336 -0.020611805  0.035064125   -1.3380336    1.3174218      8192000 
  997600    1.0003535   -1.3387894   -1.3387894 -0.020161007  0.035345375   -1.3387894    1.3186284      8192000 
  997700    1.0005752   -1.3390484   -1.3390484 -0.020127754  0.035696624   -1.3390484    1.3189206      8192000 
  997800   0.99981357   -1.3390742   -1.3390742 -0.021157517  0.036357461   -1.3390742    1.3179167      8192000 
  997900   0.99920608   -1.3398341   -1.3398341 -0.022718225  0.034975435   -1.3398341    1.3171159      8192000 
  998000   0.99736941   -1.3403733   -1.3403733 -0.025678459  0.033931615   -1.3403733    1.3146949      8192000 
  998100   0.99887347   -1.3409232   -1.3409232 -0.024245759  0.035279308   -1.3409232    1.3166775      8192000 
  998200    1.0010483   -1.3408072   -1.3408072 -0.021262978  0.034707274   -1.3408072    1.3195442      8192000 
  998300    1.0004116    -1.340705    -1.340705 -0.021999945  0.034551752    -1.340705     1.318705      8192000 
  998400   0.99930957   -1.3407731   -1.3407731 -0.023520771  0.034827613   -1.3407731    1.3172523      8192000 
  998500   0.99986077   -1.3415313   -1.3415313 -0.023552442  0.034416286   -1.3415313    1.3179789      8192000 
  998600    1.0028262   -1.3418141   -1.3418141 -0.019926218  0.034789273   -1.3418141    1.3218879      8192000 
  998700    1.0016289   -1.3405636   -1.3405636 -0.020253937  0.035793464   -1.3405636    1.3203096      8192000 
  998800   0.99955228   -1.3405991   -1.3405991 -0.023026805  0.035220994   -1.3405991    1.3175723      8192000 
  998900   0.99957245   -1.3402338   -1.3402338 -0.022634914   0.03469278   -1.3402338    1.3175988      8192000 
  999000    1.0000675   -1.3400618   -1.3400618 -0.021810372  0.034579137   -1.3400618    1.3182515      8192000 
  999100    1.0008937   -1.3398422   -1.3398422 -0.020501739  0.034438295   -1.3398422    1.3193405      8192000 
  999200    1.0020176   -1.3386245   -1.3386245 -0.017802472  0.035081733   -1.3386245     1.320822      8192000 
  999300    1.0014096   -1.3391472   -1.3391472 -0.019126672  0.035072469   -1.3391472    1.3200205      8192000 
  999400   0.99952496    -1.339719    -1.339719 -0.022182721  0.035072861    -1.339719    1.3175362      8192000 
  999500   0.99978812    -1.340059    -1.340059 -0.022175897  0.034111347    -1.340059    1.3178831      8192000 
  999600    1.0001261   -1.3392576   -1.3392576 -0.020928955  0.034798496   -1.3392576    1.3183287      8192000 
  999700     1.001586   -1.3389258   -1.3389258 -0.018672725  0.034824459   -1.3389258    1.3202531      8192000 
  999800    1.0017355   -1.3388621   -1.3388621 -0.018411928  0.034771568   -1.3388621    1.3204502      8192000 
  999900   0.99897977    -1.339082    -1.339082 -0.022264388  0.034142063    -1.339082    1.3168176      8192000 
 1000000   0.99874152   -1.3385941   -1.3385941 -0.022090552  0.034936455   -1.3385941    1.3165035      8192000 
Loop time of 69656.1 on 16 procs for 1000000 steps with 602392 atoms

Performance: 3100.948 tau/day, 14.356 timesteps/s
86.6% CPU use with 16 MPI tasks x 1 OpenMP threads

MPI task timing breakdown:
Section |  min time  |  avg time  |  max time  |%varavg|  %CPU | %total
-----------------------------------------------------------------------
Pair    | 14983      | 24301      | 44580      |4733.2 |  97.5 | 34.89
Bond    | 0.59578    | 0.69236    | 1.0465     |  12.3 | 100.0 |  0.00
Neigh   | 3780.6     | 6922       | 14477      |3079.5 |  99.6 |  9.94
Comm    | 6188.4     | 27551      | 36235      |4117.2 |  74.9 | 39.55
Output  | 27.196     | 27.654     | 28.151     |   5.1 | 100.0 |  0.04
Modify  | 3949.2     | 10353      | 25225      |8431.1 |  78.9 | 14.86
Other   |            | 500.6      |            |       |       |  0.72

Nlocal:    37649.5 ave 40964 max 33376 min
Histogram: 1 1 0 1 4 1 2 3 1 2
Nghost:    27337.4 ave 32109 max 21040 min
Histogram: 1 2 1 2 0 0 4 2 2 2
Neighs:    1.46979e+06 ave 2.07702e+06 max 666373 min
Histogram: 1 2 1 0 2 3 1 1 2 3

Total # of neighbors = 23516685
Ave neighs/atom = 39.0388
Ave special neighs/atom = 0
Neighbor list builds = 67156
Dangerous builds = 0
Total wall time: 19:20:59
