LAMMPS (29 Oct 2020)
  using 1 OpenMP thread(s) per MPI task
Created orthogonal box = (0.0000000 0.0000000 0.0000000) to (80.000000 80.000000 80.000000)
  2 by 4 by 4 MPI processor grid
Lattice spacing in x,y,z = 1.0000000 1.0000000 1.0000000
Created 512000 atoms
  create_atoms CPU = 0.009 seconds
512000 atoms in group solvent
Reading data file ...
  orthogonal box = (0.0000000 0.0000000 0.0000000) to (80.000000 80.000000 160.00000)
  2 by 2 by 8 MPI processor grid
Finding 1-2 1-3 1-4 neighbors ...
  special bond factors lj:    0.0      0.0      0.0     
  special bond factors coul:  0.0      0.0      0.0     
     0 = max # of 1-2 neighbors
     0 = max # of 1-3 neighbors
     0 = max # of 1-4 neighbors
     1 = max # of special neighbors
  special bonds CPU = 0.007 seconds
  read_data CPU = 0.023 seconds
Balancing ...
Neighbor list info ...
  update every 1 steps, delay 10 steps, check yes
  max neighbors/atom: 2000, page size: 100000
  master list distance cutoff = 2.9
  ghost atom cutoff = 2.9
  binsize = 1.45, bins = 56 56 111
  1 neighbor lists, perpetual/occasional/extra = 1 0 0
  (1) pair lj/cut/opt, perpetual
      attributes: half, newton on
      pair build: half/bin/newton
      stencil: half/bin/3d/newton
      bin: standard
 rebalancing time: 0.030 seconds
  iteration count = 5
  initial/final maximal load/proc = 32000.000 19200.000
  initial/final imbalance factor  = 2.0000000 1.2000000
  x cuts: 0.0000000 0.5 1.0000000
  y cuts: 0.0000000 0.5 1.0000000
  z cuts: 0.0000000 0.0625 0.12890625 0.1875 0.2578125 0.30859375 0.38671875 0.4375 1.0000000
WARNING: Ignoring 'compress yes' for molecular system (src/delete_atoms.cpp:125)
Deleted 19200 atoms, new total = 492800
WARNING: Ignoring 'compress yes' for molecular system (src/delete_atoms.cpp:125)
Deleted 0 atoms, new total = 492800
dynamic group thermo defined
New timer settings: style=full  mode=nosync  timeout=off
Setting up Verlet run ...
  Unit style    : lj
  Current step  : 0
  Time step     : 0.0025
Per MPI rank memory allocation (min/avg/max) = 21.45 | 22.19 | 22.73 Mbytes
Step Temp E_pair E_vdwl TotEng Press PotEng KinEng Volume 
       0   0.99997028   -3.2974116   -3.2974116   -1.7974593    8.5725801   -3.2974116    1.4999524      1024000 
    1000     1.783505   -4.4491499   -4.4491499   -1.7738979    4.6481033   -4.4491499     2.675252      1024000 
    2000    1.7809628   -4.4664749   -4.4664749   -1.7950361    3.3969524   -4.4664749    2.6714388      1024000 
    3000    1.7668716   -4.4590982   -4.4590982   -1.8087961    2.3853082   -4.4590982     2.650302      1024000 
    4000    1.7833374   -4.4623889   -4.4623889   -1.7873882     1.406207   -4.4623889    2.6750006      1024000 
    5000    1.7633407   -4.3752341   -4.3752341   -1.7302285   0.76149335   -4.3752341    2.6450056      1024000 
    6000    1.7229825   -4.2418832   -4.2418832   -1.6574147   0.43447722   -4.2418832    2.5844684      1024000 
    7000    1.6913726   -4.1240389   -4.1240389   -1.5869851   0.28283014   -4.1240389    2.5370538      1024000 
    8000    1.6715324   -4.0324739   -4.0324739   -1.5251803   0.24486481   -4.0324739    2.5072935      1024000 
    9000    1.6673387   -3.9740287   -3.9740287   -1.4730257   0.26723588   -3.9740287     2.501003      1024000 
   10000    1.6704799   -3.9343489   -3.9343489   -1.4286342   0.28425208   -3.9343489    2.5057147      1024000 
   11000    1.6783356   -3.9096456   -3.9096456   -1.3921473   0.30973267   -3.9096456    2.5174982      1024000 
   12000    1.6861052    -3.890254    -3.890254   -1.3611013   0.32470543    -3.890254    2.5291527      1024000 
   13000    1.6939632   -3.8755259   -3.8755259   -1.3345863     0.344637   -3.8755259    2.5409396      1024000 
   14000    1.7017392    -3.863866    -3.863866   -1.3112623   0.36507057    -3.863866    2.5526037      1024000 
   15000    1.7114656   -3.8586621   -3.8586621    -1.291469   0.39592719   -3.8586621    2.5671931      1024000 
   16000    1.7227918   -3.8583405   -3.8583405    -1.274158   0.43591845   -3.8583405    2.5841825      1024000 
   17000    1.7325909   -3.8584026   -3.8584026   -1.2595215   0.48905348   -3.8584026    2.5988811      1024000 
   18000    1.7413175   -3.8602072   -3.8602072   -1.2482363   0.89576555   -3.8602072     2.611971      1024000 
   19000    1.7362563   -3.8413033   -3.8413033   -1.2369241    1.7340418   -3.8413033    2.6043792      1024000 
   20000    1.7316274   -3.8237778   -3.8237778    -1.226342    2.5345094   -3.8237778    2.5974358      1024000 
   21000    1.7392137   -3.8250442   -3.8250442    -1.216229    2.9829273   -3.8250442    2.6088152      1024000 
   22000    1.7380819   -3.8142311   -3.8142311   -1.2071136    3.4776936   -3.8142311    2.6071175      1024000 
   23000    1.7411491   -3.8107964   -3.8107964    -1.199078     3.438035   -3.8107964    2.6117184      1024000 
   24000    1.7426959   -3.8043078   -3.8043078   -1.1902692    2.7845636   -3.8043078    2.6140386      1024000 
   25000    1.7289552   -3.7773043   -3.7773043   -1.1838768    2.1761029   -3.7773043    2.5934275      1024000 
   26000     1.714782   -3.7490379   -3.7490379   -1.1768702    1.6424242   -3.7490379    2.5721677      1024000 
   27000    1.6947492   -3.7120142   -3.7120142   -1.1698956    1.2054326   -3.7120142    2.5421186      1024000 
   28000    1.6592212    -3.652971    -3.652971   -1.1641443    0.9233662    -3.652971    2.4888267      1024000 
   29000    1.6182258   -3.5860161   -3.5860161   -1.1586823   0.76981383   -3.5860161    2.4273338      1024000 
   30000    1.5863331   -3.5336936   -3.5336936   -1.1541987   0.64431627   -3.5336936    2.3794948      1024000 
   31000    1.5576148   -3.4882499   -3.4882499   -1.1518325    0.5335709   -3.4882499    2.3364174      1024000 
   32000    1.5288803   -3.4529693   -3.4529693   -1.1596535   0.44173302   -3.4529693    2.2933158      1024000 
   33000    1.4865959   -3.4257061   -3.4257061   -1.1958167   0.37272021   -3.4257061    2.2298894      1024000 
   34000     1.443505   -3.4112372   -3.4112372   -1.2459841   0.32138352   -3.4112372    2.1652531      1024000 
   35000    1.3969847   -3.4067525   -3.4067525   -1.3112798   0.29187369   -3.4067525    2.0954728      1024000 
   36000    1.3555378   -3.4126109   -3.4126109   -1.3793083   0.27990631   -3.4126109    2.0333026      1024000 
   37000    1.3184962   -3.4255928   -3.4255928   -1.4478526   0.27388116   -3.4255928    1.9777402      1024000 
   38000    1.2880139   -3.4419774   -3.4419774   -1.5099604   0.27521606   -3.4419774     1.932017      1024000 
   39000    1.2696499   -3.4638681   -3.4638681    -1.559397   0.27308591   -3.4638681     1.904471      1024000 
   40000    1.2587127   -3.4859377   -3.4859377   -1.5978724   0.28343489   -3.4859377    1.8880653      1024000 
   41000      1.25796   -3.5114001   -3.5114001   -1.6244639   0.30903488   -3.5114001    1.8869362      1024000 
   42000    1.2638781        -3.54        -3.54   -1.6441867   0.35097312        -3.54    1.8958133      1024000 
   43000    1.2778061   -3.5730437   -3.5730437   -1.6563384   0.41057136   -3.5730437    1.9167053      1024000 
   44000    1.2908658   -3.6018871   -3.6018871   -1.6655924   0.50808318   -3.6018871    1.9362947      1024000 
   45000    1.3067421   -3.6316391   -3.6316391     -1.67153   0.59908789   -3.6316391    1.9601091      1024000 
   46000    1.3193642   -3.6531457   -3.6531457   -1.6741035   0.67526494   -3.6531457    1.9790422      1024000 
   47000    1.3303237   -3.6722076   -3.6722076   -1.6767261   0.73806688   -3.6722076    1.9954815      1024000 
   48000    1.3377952   -3.6892151   -3.6892151   -1.6825264   0.77571171   -3.6892151    2.0066887      1024000 
   49000    1.3387269   -3.7013072   -3.7013072   -1.6932209   0.77887488   -3.7013072    2.0080863      1024000 
   50000    1.3226345   -3.6932022   -3.6932022   -1.7092545   0.72334195   -3.6932022    1.9839477      1024000 
   51000    1.2960605   -3.6748955   -3.6748955   -1.7308087   0.63725215   -3.6748955    1.9440868      1024000 
   52000    1.2684264   -3.6573215   -3.6573215   -1.7546858   0.55945465   -3.6573215    1.9026357      1024000 
   53000    1.2435973   -3.6441198   -3.6441198   -1.7787276   0.49509528   -3.6441198    1.8653921      1024000 
   54000    1.2226723   -3.6354861   -3.6354861   -1.8014814   0.45245532   -3.6354861    1.8340047      1024000 
   55000    1.2051901   -3.6298942   -3.6298942   -1.8221127   0.42032068   -3.6298942    1.8077815      1024000 
   56000    1.1947589   -3.6323029   -3.6323029   -1.8401682   0.40050162   -3.6323029    1.7921347      1024000 
   57000    1.1853336   -3.6335892   -3.6335892   -1.8555924   0.39773424   -3.6335892    1.7779968      1024000 
   58000    1.1838542   -3.6422744   -3.6422744   -1.8664967   0.40287797   -3.6422744    1.7757778      1024000 
   59000    1.1839674   -3.6492066   -3.6492066    -1.873259   0.42525306   -3.6492066    1.7759475      1024000 
   60000    1.1896366   -3.6616419   -3.6616419   -1.8771907   0.44825695   -3.6616419    1.7844512      1024000 
   61000    1.1938539   -3.6677431   -3.6677431   -1.8769658   0.48877086   -3.6677431    1.7907773      1024000 
   62000    1.2017323   -3.6741195   -3.6741195   -1.8715248   0.51335156   -3.6741195    1.8025947      1024000 
   63000    1.2060297   -3.6728048   -3.6728048   -1.8637639   0.53393888   -3.6728048    1.8090408      1024000 
   64000    1.2067392   -3.6645144   -3.6645144   -1.8544092   0.53658768   -3.6645144    1.8101052      1024000 
   65000    1.2045452      -3.6511      -3.6511   -1.8442858   0.51338018      -3.6511    1.8068142      1024000 
   66000    1.1990961   -3.6322507   -3.6322507   -1.8336101   0.47316738   -3.6322507    1.7986405      1024000 
   67000    1.1921922    -3.609812    -3.609812   -1.8215274   0.42618715    -3.609812    1.7882846      1024000 
   68000    1.1827667   -3.5860074   -3.5860074    -1.811861   0.38058911   -3.5860074    1.7741464      1024000 
   69000    1.1717013   -3.5608803   -3.5608803    -1.803332   0.33582216   -3.5608803    1.7575484      1024000 
   70000    1.1618715   -3.5377965   -3.5377965   -1.7949928   0.29266718   -3.5377965    1.7428037      1024000 
   71000    1.1523681   -3.5167434   -3.5167434   -1.7881948   0.25496203   -3.5167434    1.7285486      1024000 
   72000    1.1413546   -3.4959222   -3.4959222   -1.7838939   0.22763298   -3.4959222    1.7120284      1024000 
   73000    1.1359852   -3.4816723   -3.4816723   -1.7776979   0.21098037   -3.4816723    1.7039743      1024000 
   74000    1.1315899   -3.4670202   -3.4670202   -1.7696388    0.1989512   -3.4670202    1.6973814      1024000 
   75000    1.1266685   -3.4546807   -3.4546807   -1.7646815   0.18860952   -3.4546807    1.6899993      1024000 
   76000    1.1251582   -3.4461362   -3.4461362   -1.7584023   0.18401484   -3.4461362    1.6877338      1024000 
   77000     1.126014   -3.4400311   -3.4400311   -1.7510136    0.1895917   -3.4400311    1.6890175      1024000 
   78000    1.1283137    -3.434437    -3.434437   -1.7419699   0.19042986    -3.434437    1.6924671      1024000 
   79000    1.1300595    -3.429541    -3.429541   -1.7344553   0.19128358    -3.429541    1.6950858      1024000 
   80000    1.1330676   -3.4252253   -3.4252253   -1.7256273   0.20131243   -3.4252253     1.699598      1024000 
   81000    1.1366687   -3.4207968   -3.4207968   -1.7157972    0.2131863   -3.4207968    1.7049996      1024000 
   82000    1.1395652   -3.4160317   -3.4160317   -1.7066873   0.22203492   -3.4160317    1.7093444      1024000 
   83000    1.1421346    -3.411651    -3.411651   -1.6984525   0.22919616    -3.411651    1.7131984      1024000 
   84000     1.144998   -3.4091118   -3.4091118   -1.6916183   0.23580657   -3.4091118    1.7174935      1024000 
   85000    1.1465983   -3.4034531   -3.4034531   -1.6835591   0.23586815   -3.4034531    1.7198939      1024000 
   86000    1.1489271   -3.3980791   -3.3980791    -1.674692   0.23643275   -3.3980791    1.7233871      1024000 
   87000    1.1508502   -3.3940956   -3.3940956   -1.6678238   0.23632046   -3.3940956    1.7262718      1024000 
   88000    1.1510214   -3.3870976   -3.3870976   -1.6605691     0.235844   -3.3870976    1.7265285      1024000 
   89000    1.1531034   -3.3841356   -3.3841356   -1.6544839   0.23645265   -3.3841356    1.7296516      1024000 
   90000    1.1570027   -3.3835633   -3.3835633   -1.6480629   0.25989028   -3.3835633    1.7355005      1024000 
   91000    1.1665862   -3.3934216   -3.3934216   -1.6435459   0.31102605   -3.3934216    1.7498757      1024000 
   92000    1.1854349   -3.4155373   -3.4155373   -1.6373886   0.41349667   -3.4155373    1.7781487      1024000 
   93000    1.2039514   -3.4382597   -3.4382597   -1.6323362   0.54634213   -3.4382597    1.8059235      1024000 
   94000    1.2241439   -3.4629158   -3.4629158   -1.6267037   0.68046874   -3.4629158    1.8362122      1024000 
   95000    1.2440276   -3.4881382   -3.4881382   -1.6221006   0.79836263   -3.4881382    1.8660376      1024000 
   96000    1.2627331   -3.5121816   -3.5121816   -1.6180858   0.90167828   -3.5121816    1.8940958      1024000 
   97000    1.2794153   -3.5333879   -3.5333879   -1.6142688   0.96370021   -3.5333879    1.9191191      1024000 
   98000    1.2929278   -3.5492756   -3.5492756   -1.6098878   0.99238276   -3.5492756    1.9393877      1024000 
   99000     1.301876   -3.5588616   -3.5588616   -1.6060515   0.98062175   -3.5588616    1.9528101      1024000 
  100000    1.3064738   -3.5629689   -3.5629689   -1.6032621   0.94030771   -3.5629689    1.9597068      1024000 
  101000    1.3055831   -3.5590629   -3.5590629   -1.6006923   0.89260458   -3.5590629    1.9583707      1024000 
  102000    1.3027717   -3.5513846   -3.5513846    -1.597231   0.82727331   -3.5513846    1.9541535      1024000 
  103000    1.2940954   -3.5364188   -3.5364188   -1.5952796   0.75877569   -3.5364188    1.9411392      1024000 
  104000    1.2844877    -3.518796    -3.518796   -1.5920683   0.68862446    -3.518796    1.9267276      1024000 
  105000    1.2726337   -3.4980805   -3.4980805   -1.5891338   0.61329234   -3.4980805    1.9089467      1024000 
  106000    1.2574808   -3.4738926   -3.4738926   -1.5876752    0.5438904   -3.4738926    1.8862174      1024000 
  107000    1.2423619   -3.4489109   -3.4489109   -1.5853719   0.47157554   -3.4489109     1.863539      1024000 
  108000    1.2244443   -3.4205882   -3.4205882   -1.5839255   0.40825447   -3.4205882    1.8366627      1024000 
  109000    1.2066211   -3.3945973   -3.3945973   -1.5846693   0.34688035   -3.3945973     1.809928      1024000 
  110000    1.1868293    -3.369662    -3.369662   -1.5894217   0.30001015    -3.369662    1.7802404      1024000 
  111000    1.1653282   -3.3474468   -3.3474468    -1.599458   0.25126138   -3.3474468    1.7479888      1024000 
  112000    1.1443593   -3.3290061   -3.3290061   -1.6124706   0.21219498   -3.3290061    1.7165354      1024000 
  113000    1.1240226   -3.3123294   -3.3123294   -1.6262989   0.18046716   -3.3123294    1.6860305      1024000 
  114000    1.1073066   -3.3009877   -3.3009877   -1.6400312   0.15194417   -3.3009877    1.6609565      1024000 
  115000    1.0921604   -3.2910572   -3.2910572   -1.6528199   0.13748048   -3.2910572    1.6382373      1024000 
  116000    1.0823128    -3.287871    -3.287871   -1.6644051   0.12131632    -3.287871    1.6234659      1024000 
  117000     1.073224   -3.2848162   -3.2848162   -1.6749834   0.11785168   -3.2848162    1.6098327      1024000 
  118000    1.0665236   -3.2829124   -3.2829124   -1.6831303   0.11034609   -3.2829124    1.5997821      1024000 
  119000    1.0650205   -3.2867979   -3.2867979   -1.6892704   0.10900933   -3.2867979    1.5975275      1024000 
  120000    1.0628006   -3.2889277   -3.2889277   -1.6947301   0.11705765   -3.2889277    1.5941976      1024000 
  121000    1.0641375   -3.2959192   -3.2959192   -1.6997162   0.12139083   -3.2959192    1.5962031      1024000 
  122000    1.0663256   -3.3019729   -3.3019729   -1.7024878   0.12949191   -3.3019729    1.5994851      1024000 
  123000    1.0700128   -3.3097727   -3.3097727   -1.7047568   0.14052667   -3.3097727    1.6050159      1024000 
  124000     1.074133   -3.3168109   -3.3168109   -1.7056147   0.14615851   -3.3168109    1.6111963      1024000 
  125000    1.0778282   -3.3229194   -3.3229194   -1.7061804    0.1587658   -3.3229194     1.616739      1024000 
  126000    1.0830675   -3.3303743   -3.3303743   -1.7057763   0.16865707   -3.3303743     1.624598      1024000 
  127000    1.0907605   -3.3394222   -3.3394222   -1.7032848   0.18190069   -3.3394222    1.6361374      1024000 
  128000    1.0953794   -3.3451748   -3.3451748    -1.702109   0.20459869   -3.3451748    1.6430658      1024000 
  129000    1.1055892   -3.3579969   -3.3579969   -1.6996165   0.22496591   -3.3579969    1.6583804      1024000 
  130000    1.1162477   -3.3704876   -3.3704876   -1.6961195   0.24635853   -3.3704876    1.6743681      1024000 
  131000    1.1241246   -3.3793001   -3.3793001   -1.6931165   0.27330087   -3.3793001    1.6861835      1024000 
  132000     1.130523   -3.3871744   -3.3871744   -1.6913932    0.2980858   -3.3871744    1.6957811      1024000 
  133000    1.1376624   -3.3951123   -3.3951123   -1.6886221   0.31810517   -3.3951123    1.7064902      1024000 
  134000     1.143553   -3.4009208   -3.4009208   -1.6855948   0.33766467   -3.4009208     1.715326      1024000 
  135000    1.1489348   -3.4066272   -3.4066272   -1.6832285   0.34088046   -3.4066272    1.7233987      1024000 
  136000      1.14925   -3.4050242   -3.4050242   -1.6811527     0.339199   -3.4050242    1.7238715      1024000 
  137000    1.1453452   -3.3984481   -3.3984481   -1.6804337   0.33057548   -3.3984481    1.7180144      1024000 
  138000    1.1415836   -3.3904111   -3.3904111   -1.6780392   0.31043494   -3.3904111    1.7123719      1024000 
  139000    1.1347462   -3.3779558   -3.3779558     -1.67584    0.2888001   -3.3779558    1.7021158      1024000 
  140000    1.1265275   -3.3663588   -3.3663588    -1.676571   0.26020133   -3.3663588    1.6897878      1024000 
  141000    1.1187019   -3.3552272   -3.3552272   -1.6771777   0.23103256   -3.3552272    1.6780495      1024000 
  142000    1.1092734   -3.3426949   -3.3426949   -1.6787882    0.2111205   -3.3426949    1.6639067      1024000 
  143000    1.1018261   -3.3325995   -3.3325995   -1.6798638   0.19598133   -3.3325995    1.6527357      1024000 
  144000    1.0971157   -3.3262754   -3.3262754   -1.6806052   0.17501964   -3.3262754    1.6456702      1024000 
  145000    1.0900242    -3.316442    -3.316442    -1.681409   0.17097259    -3.316442     1.635033      1024000 
  146000     1.085809   -3.3114078   -3.3114078   -1.6826975    0.1641991   -3.3114078    1.6287103      1024000 
  147000      1.08254    -3.306993    -3.306993   -1.6831862   0.15625357    -3.306993    1.6238067      1024000 
  148000    1.0803901   -3.3054195   -3.3054195   -1.6848376   0.15290191   -3.3054195    1.6205819      1024000 
  149000    1.0786465   -3.3030126   -3.3030126   -1.6850462   0.15154752   -3.3030126    1.6179665      1024000 
  150000    1.0781905   -3.3021624   -3.3021624     -1.68488   0.15244396   -3.3021624    1.6172824      1024000 
  151000    1.0785411   -3.3018746   -3.3018746   -1.6840662   0.15927721   -3.3018746    1.6178084      1024000 
  152000    1.0797318   -3.3026413   -3.3026413   -1.6830469   0.16419054   -3.3026413    1.6195945      1024000 
  153000    1.0812077   -3.3026848   -3.3026848   -1.6808765   0.16700819   -3.3026848    1.6218082      1024000 
  154000    1.0836099   -3.3045512   -3.3045512   -1.6791397   0.17541437   -3.3045512    1.6254115      1024000 
  155000    1.0866139   -3.3065885   -3.3065885   -1.6766709   0.18555954   -3.3065885    1.6299176      1024000 
  156000    1.0892755   -3.3088896   -3.3088896   -1.6749796   0.18889025   -3.3088896      1.63391      1024000 
  157000    1.0931646   -3.3118993   -3.3118993   -1.6721558   0.19362963   -3.3118993    1.6397435      1024000 
  158000    1.0965789   -3.3142248   -3.3142248   -1.6693599   0.20852138   -3.3142248     1.644865      1024000 
  159000    1.1006596   -3.3181732   -3.3181732   -1.6671871   0.21296769   -3.3181732     1.650986      1024000 
  160000    1.1051072   -3.3226268   -3.3226268   -1.6649694   0.22578735   -3.3226268    1.6576574      1024000 
  161000    1.1090577   -3.3248457   -3.3248457   -1.6612625   0.24265981   -3.3248457    1.6635831      1024000 
  162000    1.1166525   -3.3324316   -3.3324316   -1.6574562   0.26890767   -3.3324316    1.6749754      1024000 
  163000    1.1261181   -3.3427631   -3.3427631   -1.6535894   0.29027366   -3.3427631    1.6891737      1024000 
  164000    1.1352618   -3.3528817   -3.3528817   -1.6499924    0.3238505   -3.3528817    1.7028892      1024000 
  165000    1.1436447   -3.3617414   -3.3617414   -1.6462779   0.36509766   -3.3617414    1.7154635      1024000 
  166000    1.1534891   -3.3726756   -3.3726756   -1.6424455   0.39767905   -3.3726756    1.7302301      1024000 
  167000    1.1624357   -3.3840694   -3.3840694   -1.6404194   0.43792985   -3.3840694      1.74365      1024000 
  168000    1.1709047   -3.3936164   -3.3936164   -1.6372629   0.47273137   -3.3936164    1.7563535      1024000 
  169000    1.1793561   -3.4031269   -3.4031269   -1.6340963   0.49917446   -3.4031269    1.7690305      1024000 
  170000    1.1874483   -3.4121264   -3.4121264   -1.6309576    0.5156577   -3.4121264    1.7811688      1024000 
  171000    1.1934057   -3.4172714   -3.4172714   -1.6271664   0.52712225   -3.4172714     1.790105      1024000 
  172000    1.1964854   -3.4196063   -3.4196063   -1.6248818   0.53628957   -3.4196063    1.7947245      1024000 
  173000    1.1991893   -3.4210361   -3.4210361   -1.6222558   0.53680268   -3.4210361    1.7987803      1024000 
  174000    1.2011186   -3.4224538   -3.4224538   -1.6207796   0.52223819   -3.4224538    1.8016742      1024000 
  175000    1.1982914   -3.4173854   -3.4173854   -1.6199519   0.50339495   -3.4173854    1.7974335      1024000 
  176000     1.196413   -3.4131314   -3.4131314   -1.6185156   0.48451833   -3.4131314    1.7946159      1024000 
  177000    1.1923438   -3.4060151   -3.4060151   -1.6175031   0.46610283   -3.4060151    1.7885121      1024000 
  178000    1.1865602   -3.3955361   -3.3955361   -1.6156993   0.44726166   -3.3955361    1.7798367      1024000 
  179000    1.1833253   -3.3890796   -3.3890796   -1.6140953   0.41947791   -3.3890796    1.7749844      1024000 
  180000    1.1757913   -3.3764951   -3.3764951   -1.6128117   0.38927963   -3.3764951    1.7636834      1024000 
  181000     1.168838   -3.3653317   -3.3653317   -1.6120782   0.36522675   -3.3653317    1.7532535      1024000 
  182000    1.1622711   -3.3555971   -3.3555971   -1.6121939   0.33079319   -3.3555971    1.7434032      1024000 
  183000    1.1544777   -3.3439639   -3.3439639   -1.6122508   0.31204973   -3.3439639    1.7317131      1024000 
  184000    1.1451478   -3.3315763   -3.3315763   -1.6138581   0.28768458   -3.3315763    1.7177183      1024000 
  185000    1.1362643   -3.3210636   -3.3210636   -1.6166706   0.26837933   -3.3210636     1.704393      1024000 
  186000    1.1290858   -3.3143717   -3.3143717   -1.6207465   0.24008231   -3.3143717    1.6936252      1024000 
  187000    1.1202331     -3.30524     -3.30524   -1.6248938   0.22242752     -3.30524    1.6803462      1024000 
  188000    1.1119234   -3.2966893   -3.2966893   -1.6288075   0.20758432   -3.2966893    1.6678817      1024000 
  189000    1.1037607   -3.2890411   -3.2890411   -1.6334034   0.20036129   -3.2890411    1.6556377      1024000 
  190000    1.0995379   -3.2854791   -3.2854791   -1.6361757   0.18409229   -3.2854791    1.6493035      1024000 
  191000    1.0933023   -3.2803966   -3.2803966   -1.6404464   0.17587373   -3.2803966    1.6399501      1024000 
  192000    1.0889497   -3.2759844   -3.2759844   -1.6425631     0.168707   -3.2759844    1.6334212      1024000 
  193000     1.085099   -3.2736866   -3.2736866   -1.6460415   0.16397717   -3.2736866    1.6276452      1024000 
  194000    1.0835708   -3.2729912   -3.2729912   -1.6476384   0.15892594   -3.2729912    1.6253529      1024000 
  195000    1.0827156   -3.2738719   -3.2738719   -1.6498019   0.15432193   -3.2738719    1.6240701      1024000 
  196000     1.081966   -3.2745915   -3.2745915   -1.6516458    0.1575988   -3.2745915    1.6229457      1024000 
  197000    1.0802325   -3.2729896   -3.2729896   -1.6526442   0.16211447   -3.2729896    1.6203454      1024000 
  198000    1.0841631   -3.2788259   -3.2788259   -1.6525845    0.1609581   -3.2788259    1.6262414      1024000 
  199000    1.0863958    -3.280829    -3.280829   -1.6512386   0.16839671    -3.280829    1.6295904      1024000 
  200000    1.0866556    -3.282546    -3.282546   -1.6525659   0.17782973    -3.282546      1.62998      1024000 
  201000    1.0898293   -3.2864685   -3.2864685   -1.6517279   0.18060305   -3.2864685    1.6347406      1024000 
  202000    1.0936594   -3.2911284   -3.2911284   -1.6506427   0.18970861   -3.2911284    1.6404857      1024000 
  203000    1.0962517   -3.2950118   -3.2950118   -1.6506376   0.19503437   -3.2950118    1.6443742      1024000 
  204000     1.099971   -3.2996653   -3.2996653   -1.6497122   0.21164348   -3.2996653    1.6499531      1024000 
  205000    1.1035827   -3.3044925   -3.3044925   -1.6491218    0.2144812   -3.3044925    1.6553707      1024000 
  206000    1.1063851    -3.307106    -3.307106   -1.6475317   0.22489558    -3.307106    1.6595743      1024000 
  207000    1.1085085   -3.3079035   -3.3079035   -1.6451441   0.23161265   -3.3079035    1.6627594      1024000 
  208000    1.1116134   -3.3107784   -3.3107784   -1.6433617   0.23481348   -3.3107784    1.6674167      1024000 
  209000    1.1143064   -3.3123383   -3.3123383   -1.6408821    0.2400849   -3.3123383    1.6714562      1024000 
  210000    1.1160923   -3.3129783   -3.3129783   -1.6388433   0.24639455   -3.3129783     1.674135      1024000 
  211000     1.116077   -3.3112227   -3.3112227   -1.6371106   0.24568731   -3.3112227    1.6741121      1024000 
  212000    1.1149848   -3.3082675   -3.3082675   -1.6357936   0.24783456   -3.3082675    1.6724739      1024000 
  213000    1.1162892   -3.3079127   -3.3079127   -1.6334824   0.23755868   -3.3079127    1.6744303      1024000 
  214000    1.1138424   -3.3024978   -3.3024978   -1.6317376   0.23185518   -3.3024978    1.6707602      1024000 
  215000    1.1111277   -3.2986639   -3.2986639   -1.6319758   0.22651836   -3.2986639    1.6666881      1024000 
  216000    1.1089706     -3.29456     -3.29456   -1.6311075   0.22299156     -3.29456    1.6634526      1024000 
  217000    1.1071779   -3.2902964   -3.2902964    -1.629533   0.21880748   -3.2902964    1.6607635      1024000 
  218000    1.1081963   -3.2907636   -3.2907636   -1.6284726   0.21648633   -3.2907636     1.662291      1024000 
  219000     1.107816    -3.289368    -3.289368   -1.6276474   0.22055341    -3.289368    1.6617206      1024000 
  220000    1.1100917   -3.2921175   -3.2921175   -1.6269833   0.22514412   -3.2921175    1.6651342      1024000 
  221000    1.1129439   -3.2950103   -3.2950103   -1.6255978   0.24811713   -3.2950103    1.6694125      1024000 
  222000    1.1172224   -3.2997355   -3.2997355   -1.6239054   0.26111263   -3.2997355    1.6758301      1024000 
  223000    1.1219033    -3.305814    -3.305814   -1.6229624   0.27602418    -3.305814    1.6828516      1024000 
  224000    1.1260773   -3.3119127   -3.3119127   -1.6228003   0.29745926   -3.3119127    1.6891125      1024000 
  225000    1.1312197    -3.318155    -3.318155   -1.6213289   0.31702567    -3.318155    1.6968261      1024000 
  226000    1.1363533   -3.3245994   -3.3245994   -1.6200729   0.33488176   -3.3245994    1.7045265      1024000 
  227000    1.1423386   -3.3328256   -3.3328256   -1.6193213    0.3508379   -3.3328256    1.7135044      1024000 
  228000     1.146913   -3.3367099   -3.3367099    -1.616344   0.35948422   -3.3367099     1.720366      1024000 
  229000    1.1517052   -3.3432848   -3.3432848   -1.6157304   0.36914009   -3.3432848    1.7275544      1024000 
  230000    1.1556018   -3.3476541   -3.3476541    -1.614255    0.3781585   -3.3476541    1.7333992      1024000 
  231000    1.1580899   -3.3498178   -3.3498178   -1.6126865   0.38270335   -3.3498178    1.7371313      1024000 
  232000    1.1596091   -3.3507824   -3.3507824   -1.6113722   0.37958343   -3.3507824    1.7394102      1024000 
  233000    1.1607414   -3.3513222   -3.3513222   -1.6102136   0.38162133   -3.3513222    1.7411086      1024000 
  234000    1.1613023   -3.3505001   -3.3505001   -1.6085502    0.3715518   -3.3505001    1.7419499      1024000 
  235000    1.1612837   -3.3481517   -3.3481517   -1.6062298   0.37394646   -3.3481517     1.741922      1024000 
  236000    1.1609807   -3.3463475   -3.3463475     -1.60488   0.36627009   -3.3463475    1.7414674      1024000 
  237000    1.1592052   -3.3418306   -3.3418306   -1.6030263   0.36205388   -3.3418306    1.7388042      1024000 
  238000    1.1584348   -3.3388722   -3.3388722   -1.6012235   0.35200494   -3.3388722    1.7376487      1024000 
  239000    1.1576556   -3.3351191   -3.3351191   -1.5986391   0.34532732   -3.3351191    1.7364799      1024000 
  240000    1.1558283   -3.3305212   -3.3305212   -1.5967822    0.3341157   -3.3305212     1.733739      1024000 
  241000    1.1540043   -3.3270075   -3.3270075   -1.5960047   0.32112649   -3.3270075    1.7310029      1024000 
  242000    1.1510589   -3.3224465   -3.3224465   -1.5958617    0.3182656   -3.3224465    1.7265848      1024000 
  243000    1.1451665   -3.3144318   -3.3144318   -1.5966855    0.3055475   -3.3144318    1.7177463      1024000 
  244000    1.1415486   -3.3091018   -3.3091018   -1.5967823   0.29889111   -3.3091018    1.7123195      1024000 
  245000    1.1377745   -3.3044696   -3.3044696   -1.5978112   0.28745481   -3.3044696    1.7066584      1024000 
  246000    1.1348285   -3.3021577   -3.3021577   -1.5999184   0.27512495   -3.3021577    1.7022393      1024000 
  247000    1.1290531   -3.2967705   -3.2967705   -1.6031944   0.26754537   -3.2967705    1.6935762      1024000 
  248000     1.124938   -3.2922661   -3.2922661   -1.6048626   0.25701021   -3.2922661    1.6874035      1024000 
  249000    1.1211748   -3.2869338   -3.2869338    -1.605175   0.24243641   -3.2869338    1.6817588      1024000 
  250000    1.1176707   -3.2837611   -3.2837611   -1.6072584   0.23463016   -3.2837611    1.6765027      1024000 
  251000    1.1144657   -3.2802177   -3.2802177   -1.6085225   0.23175333   -3.2802177    1.6716951      1024000 
  252000    1.1125918   -3.2794766   -3.2794766   -1.6105923     0.227634   -3.2794766    1.6688842      1024000 
  253000    1.1089726   -3.2752409   -3.2752409   -1.6117854   0.22115358   -3.2752409    1.6634555      1024000 
  254000    1.1073683    -3.273156    -3.273156   -1.6121069   0.21455069    -3.273156    1.6610491      1024000 
  255000    1.1077259   -3.2745758   -3.2745758   -1.6129903   0.20340345   -3.2745758    1.6615854      1024000 
  256000    1.1052555   -3.2709908   -3.2709908   -1.6131109   0.20514883   -3.2709908    1.6578798      1024000 
  257000    1.1035463   -3.2685708   -3.2685708   -1.6132546   0.20920713   -3.2685708    1.6553162      1024000 
  258000    1.1035339   -3.2686944   -3.2686944   -1.6133968   0.20394644   -3.2686944    1.6552976      1024000 
  259000    1.1027898   -3.2676964   -3.2676964   -1.6135151   0.20670582   -3.2676964    1.6541813      1024000 
  260000    1.1046206   -3.2699508   -3.2699508   -1.6130232   0.20177801   -3.2699508    1.6569276      1024000 
  261000    1.1045538   -3.2687265   -3.2687265   -1.6118991   0.20490022   -3.2687265    1.6568274      1024000 
  262000    1.1053353   -3.2690034   -3.2690034   -1.6110039   0.21154123   -3.2690034    1.6579996      1024000 
  263000     1.108014   -3.2720678   -3.2720678   -1.6100502   0.20890971   -3.2720678    1.6620176      1024000 
  264000    1.1081833   -3.2726202   -3.2726202   -1.6103486   0.21540231   -3.2726202    1.6622716      1024000 
  265000    1.1092082   -3.2739745   -3.2739745   -1.6101655   0.22395728   -3.2739745     1.663809      1024000 
  266000    1.1110201   -3.2761197   -3.2761197   -1.6095929   0.22039687   -3.2761197    1.6665267      1024000 
  267000    1.1113013   -3.2762205   -3.2762205    -1.609272     0.227234   -3.2762205    1.6669485      1024000 
  268000    1.1128488   -3.2769587   -3.2769587   -1.6076889   0.23302983   -3.2769587    1.6692699      1024000 
  269000    1.1143462   -3.2767472   -3.2767472   -1.6052313   0.24276986   -3.2767472    1.6715159      1024000 
  270000    1.1179559   -3.2807082   -3.2807082   -1.6037778   0.24083004   -3.2807082    1.6769304      1024000 
  271000    1.1191798   -3.2819557   -3.2819557   -1.6031894   0.23627857   -3.2819557    1.6787663      1024000 
  272000    1.1200255   -3.2827799   -3.2827799    -1.602745   0.24365023   -3.2827799    1.6800348      1024000 
  273000     1.120775   -3.2826874   -3.2826874   -1.6015283   0.24934168   -3.2826874    1.6811591      1024000 
  274000    1.1220853   -3.2845475   -3.2845475   -1.6014229   0.26337745   -3.2845475    1.6831246      1024000 
  275000    1.1254031   -3.2887037   -3.2887037   -1.6006024   0.26280432   -3.2887037    1.6881012      1024000 
  276000    1.1274592   -3.2908361   -3.2908361   -1.5996508   0.27122616   -3.2908361    1.6911853      1024000 
  277000    1.1278161   -3.2901093   -3.2901093   -1.5983887   0.27701114   -3.2901093    1.6917207      1024000 
  278000    1.1317581   -3.2937929   -3.2937929   -1.5961592   0.28754433   -3.2937929    1.6976337      1024000 
  279000    1.1326325   -3.2945206   -3.2945206   -1.5955753   0.29250254   -3.2945206    1.6989454      1024000 
  280000    1.1352575    -3.297379    -3.297379   -1.5944961   0.29820966    -3.297379    1.7028829      1024000 
  281000    1.1394453    -3.303094    -3.303094   -1.5939295   0.30488256    -3.303094    1.7091645      1024000 
  282000    1.1409789   -3.3038203   -3.3038203   -1.5923554   0.31172183   -3.3038203    1.7114648      1024000 
  283000    1.1402102    -3.301852    -3.301852   -1.5915402    0.3255583    -3.301852    1.7103118      1024000 
  284000    1.1443673   -3.3066767   -3.3066767   -1.5901293   0.32466619   -3.3066767    1.7165474      1024000 
  285000    1.1450299   -3.3077957   -3.3077957   -1.5902543   0.32840951   -3.3077957    1.7175414      1024000 
  286000    1.1468471   -3.3092075   -3.3092075   -1.5889403   0.33178691   -3.3092075    1.7202672      1024000 
  287000    1.1495368   -3.3119596   -3.3119596    -1.587658   0.33218164   -3.3119596    1.7243016      1024000 
  288000    1.1503373   -3.3119819   -3.3119819   -1.5864794   0.33076177   -3.3119819    1.7255024      1024000 
  289000    1.1496495   -3.3102039   -3.3102039   -1.5857332   0.33136217   -3.3102039    1.7244707      1024000 
  290000    1.1490654   -3.3085082   -3.3085082   -1.5849136   0.32696767   -3.3085082    1.7235946      1024000 
  291000    1.1509509   -3.3090358   -3.3090358    -1.582613   0.32933666   -3.3090358    1.7264228      1024000 
  292000     1.147771   -3.3038764   -3.3038764   -1.5822234   0.32510887   -3.3038764     1.721653      1024000 
  293000    1.1490937   -3.3035784   -3.3035784   -1.5799413   0.31705567   -3.3035784    1.7236371      1024000 
  294000    1.1482164   -3.3006299   -3.3006299   -1.5783088   0.31140971   -3.3006299     1.722321      1024000 
  295000    1.1465807   -3.2990883   -3.2990883   -1.5792208   0.30826755   -3.2990883    1.7198675      1024000 
  296000    1.1450787   -3.2960194   -3.2960194   -1.5784048   0.29750073   -3.2960194    1.7176146      1024000 
  297000    1.1432448   -3.2933422   -3.2933422   -1.5784785   0.29803721   -3.2933422    1.7148637      1024000 
  298000    1.1404445   -3.2882616   -3.2882616   -1.5775983   0.29135235   -3.2882616    1.7106632      1024000 
  299000    1.1398652   -3.2866271   -3.2866271   -1.5768328   0.28128739   -3.2866271    1.7097943      1024000 
  300000    1.1386569   -3.2837854   -3.2837854   -1.5758035   0.27533422   -3.2837854    1.7079819      1024000 
  301000    1.1364339   -3.2820268   -3.2820268   -1.5773794   0.26844454   -3.2820268    1.7046474      1024000 
  302000    1.1323732   -3.2774139   -3.2774139   -1.5788575   0.26873244   -3.2774139    1.6985564      1024000 
  303000    1.1319721   -3.2770005   -3.2770005   -1.5790458    0.2604039   -3.2770005    1.6979547      1024000 
  304000     1.128259   -3.2727276   -3.2727276   -1.5803426   0.26283077   -3.2727276    1.6923851      1024000 
  305000    1.1274378   -3.2718355   -3.2718355   -1.5806822   0.25770985   -3.2718355    1.6911533      1024000 
  306000    1.1254903   -3.2701987   -3.2701987   -1.5819668   0.24505963   -3.2701987     1.688232      1024000 
  307000    1.1233402   -3.2674707   -3.2674707   -1.5824637   0.25039016   -3.2674707    1.6850069      1024000 
  308000    1.1207611   -3.2643982   -3.2643982     -1.58326   0.25064468   -3.2643982    1.6811383      1024000 
  309000    1.1195286   -3.2626684   -3.2626684   -1.5833789   0.24601327   -3.2626684    1.6792895      1024000 
  310000    1.1180082   -3.2610907   -3.2610907   -1.5840818    0.2406492   -3.2610907    1.6770089      1024000 
  311000    1.1192387   -3.2633445   -3.2633445   -1.5844898   0.22695013   -3.2633445    1.6788546      1024000 
  312000    1.1175466   -3.2607388   -3.2607388   -1.5844224   0.23148992   -3.2607388    1.6763165      1024000 
  313000    1.1185072   -3.2612449   -3.2612449   -1.5834875   0.22890027   -3.2612449    1.6777574      1024000 
  314000    1.1173034   -3.2588997   -3.2588997    -1.582948   0.23089398   -3.2588997    1.6759517      1024000 
  315000    1.1198053   -3.2603875   -3.2603875    -1.580683   0.23104771   -3.2603875    1.6797045      1024000 
  316000    1.1187227   -3.2591505   -3.2591505   -1.5810698   0.23681177   -3.2591505    1.6780806      1024000 
  317000    1.1193443   -3.2594205   -3.2594205   -1.5804074   0.23263627   -3.2594205    1.6790131      1024000 
  318000    1.1198913   -3.2602636   -3.2602636   -1.5804301   0.23573972   -3.2602636    1.6798335      1024000 
  319000    1.1196756   -3.2595833   -3.2595833   -1.5800733    0.2419599   -3.2595833    1.6795101      1024000 
  320000    1.1221904   -3.2624056   -3.2624056   -1.5791234   0.23800464   -3.2624056    1.6832822      1024000 
  321000    1.1234646   -3.2635113   -3.2635113   -1.5783179   0.23930499   -3.2635113    1.6851934      1024000 
  322000    1.1244308   -3.2648765   -3.2648765   -1.5782338   0.24535042   -3.2648765    1.6866428      1024000 
  323000    1.1251982   -3.2649787   -3.2649787   -1.5771848   0.25077124   -3.2649787    1.6877939      1024000 
  324000    1.1263522   -3.2666545   -3.2666545   -1.5771296     0.251795   -3.2666545    1.6895249      1024000 
  325000     1.128494   -3.2679056   -3.2679056    -1.575168   0.25699699   -3.2679056    1.6927376      1024000 
  326000    1.1295532   -3.2698075   -3.2698075   -1.5754811   0.25293302   -3.2698075    1.6943264      1024000 
  327000     1.129913   -3.2689731   -3.2689731   -1.5741071    0.2595946   -3.2689731     1.694866      1024000 
  328000    1.1305378   -3.2698256   -3.2698256   -1.5740223   0.26759787   -3.2698256    1.6958033      1024000 
  329000    1.1332378   -3.2719885   -3.2719885   -1.5721352   0.27082515   -3.2719885    1.6998533      1024000 
  330000    1.1345567   -3.2732013   -3.2732013   -1.5713697   0.27291862   -3.2732013    1.7018316      1024000 
  331000    1.1350195   -3.2723535   -3.2723535   -1.5698276   0.28071248   -3.2723535    1.7025259      1024000 
  332000    1.1374169   -3.2754857   -3.2754857   -1.5693638   0.28254745   -3.2754857    1.7061219      1024000 
  333000    1.1389325   -3.2768459   -3.2768459   -1.5684506   0.28587767   -3.2768459    1.7083953      1024000 
  334000    1.1392183   -3.2760604   -3.2760604   -1.5672364   0.29118851   -3.2760604     1.708824      1024000 
  335000    1.1405375   -3.2775499   -3.2775499   -1.5667471   0.29666422   -3.2775499    1.7108028      1024000 
  336000    1.1429071   -3.2797071   -3.2797071   -1.5653498   0.29623226   -3.2797071    1.7143572      1024000 
  337000    1.1440308   -3.2806936   -3.2806936   -1.5646509   0.30342964   -3.2806936    1.7160427      1024000 
  338000     1.144468   -3.2791807   -3.2791807   -1.5624821   0.30837746   -3.2791807    1.7166986      1024000 
  339000    1.1452962   -3.2802261   -3.2802261   -1.5622854   0.30884578   -3.2802261    1.7179407      1024000 
  340000    1.1472408   -3.2819641   -3.2819641   -1.5611064   0.31088621   -3.2819641    1.7208577      1024000 
  341000    1.1474262   -3.2821299   -3.2821299   -1.5609942   0.30999135   -3.2821299    1.7211357      1024000 
  342000     1.147042   -3.2806964   -3.2806964   -1.5601369   0.31306503   -3.2806964    1.7205595      1024000 
  343000    1.1479132   -3.2806591   -3.2806591   -1.5587928   0.30916906   -3.2806591    1.7218663      1024000 
  344000    1.1489234   -3.2808919   -3.2808919   -1.5575103    0.3063607   -3.2808919    1.7233816      1024000 
  345000    1.1484866   -3.2793369   -3.2793369   -1.5566105   0.30876921   -3.2793369    1.7227264      1024000 
  346000    1.1473688   -3.2784813   -3.2784813   -1.5574316   0.30215135   -3.2784813    1.7210497      1024000 
  347000    1.1454387   -3.2743983   -3.2743983   -1.5562437   0.30693467   -3.2743983    1.7181546      1024000 
  348000    1.1459114   -3.2744201   -3.2744201   -1.5555565   0.29885401   -3.2744201    1.7188636      1024000 
  349000      1.14513   -3.2722984   -3.2722984   -1.5546069   0.29801971   -3.2722984    1.7176915      1024000 
  350000    1.1445073   -3.2712927   -3.2712927   -1.5545351   0.29962403   -3.2712927    1.7167575      1024000 
  351000    1.1425969   -3.2677645   -3.2677645   -1.5538726   0.29520273   -3.2677645    1.7138918      1024000 
  352000    1.1420232    -3.267087    -3.267087   -1.5540557   0.28925554    -3.267087    1.7130313      1024000 
  353000    1.1412161   -3.2655828   -3.2655828   -1.5537621   0.28499218   -3.2655828    1.7118207      1024000 
  354000    1.1415206   -3.2661846   -3.2661846   -1.5539072   0.28122474   -3.2661846    1.7122774      1024000 
  355000    1.1388909   -3.2618018   -3.2618018   -1.5534689   0.27504207   -3.2618018    1.7083329      1024000 
  356000      1.13777     -3.25997     -3.25997   -1.5533184   0.26995682     -3.25997    1.7066516      1024000 
  357000    1.1362182   -3.2576977   -3.2576977   -1.5533738   0.26668182   -3.2576977    1.7043238      1024000 
  358000    1.1353121   -3.2564978   -3.2564978   -1.5535332   0.26414217   -3.2564978    1.7029646      1024000 
  359000    1.1360376   -3.2572072   -3.2572072   -1.5531542   0.26101307   -3.2572072     1.704053      1024000 
  360000    1.1335539   -3.2536032   -3.2536032   -1.5532759    0.2609492   -3.2536032    1.7003273      1024000 
  361000    1.1336787   -3.2531699   -3.2531699   -1.5526554   0.25529913   -3.2531699    1.7005146      1024000 
  362000    1.1336965   -3.2539238   -3.2539238   -1.5533824   0.25685755   -3.2539238    1.7005414      1024000 
  363000    1.1335097   -3.2528519   -3.2528519   -1.5525908   0.25401893   -3.2528519    1.7002611      1024000 
  364000    1.1329793   -3.2522944   -3.2522944   -1.5528289   0.25368073   -3.2522944    1.6994655      1024000 
  365000    1.1325745   -3.2516559   -3.2516559   -1.5527976   0.25118624   -3.2516559    1.6988584      1024000 
  366000    1.1317872    -3.248834    -3.248834   -1.5511566   0.25400527    -3.248834    1.6976774      1024000 
  367000    1.1333019   -3.2504358   -3.2504358   -1.5504864    0.2519619   -3.2504358    1.6999493      1024000 
  368000    1.1321979   -3.2486417   -3.2486417   -1.5503482   0.25529563   -3.2486417    1.6982934      1024000 
  369000     1.131618   -3.2472959   -3.2472959   -1.5498724   0.25781493   -3.2472959    1.6974235      1024000 
  370000    1.1313174   -3.2464632   -3.2464632   -1.5494906   0.25460035   -3.2464632    1.6969726      1024000 
  371000     1.131872   -3.2472508   -3.2472508   -1.5494463   0.25268033   -3.2472508    1.6978045      1024000 
  372000    1.1320052   -3.2472092   -3.2472092   -1.5492048   0.25532906   -3.2472092    1.6980044      1024000 
  373000    1.1314509   -3.2467398   -3.2467398   -1.5495669   0.25801701   -3.2467398    1.6971729      1024000 
  374000    1.1326333   -3.2474362   -3.2474362   -1.5484897   0.26351879   -3.2474362    1.6989465      1024000 
  375000     1.133709   -3.2488677   -3.2488677   -1.5483076   0.25893984   -3.2488677    1.7005601      1024000 
  376000    1.1351841   -3.2498005   -3.2498005   -1.5470278   0.26760856   -3.2498005    1.7027727      1024000 
  377000    1.1351597   -3.2492464   -3.2492464   -1.5465102   0.26717402   -3.2492464    1.7027362      1024000 
  378000    1.1367368   -3.2512467   -3.2512467    -1.546145   0.26389568   -3.2512467    1.7051017      1024000 
  379000     1.137019   -3.2511091   -3.2511091   -1.5455841   0.27069958   -3.2511091     1.705525      1024000 
  380000    1.1394507    -3.253191    -3.253191   -1.5440184   0.27096326    -3.253191    1.7091726      1024000 
  381000    1.1405426   -3.2540957   -3.2540957   -1.5432853   0.27395465   -3.2540957    1.7108104      1024000 
  382000    1.1405272   -3.2536854   -3.2536854   -1.5428981   0.27727771   -3.2536854    1.7107873      1024000 
  383000    1.1411579   -3.2528156   -3.2528156   -1.5410822   0.28312348   -3.2528156    1.7117334      1024000 
  384000     1.143473   -3.2553271   -3.2553271   -1.5401211   0.29243472   -3.2553271    1.7152061      1024000 
  385000    1.1444228   -3.2561336   -3.2561336   -1.5395028   0.28874227   -3.2561336    1.7166307      1024000 
  386000    1.1451764   -3.2576121   -3.2576121   -1.5398511   0.28711895   -3.2576121    1.7177611      1024000 
  387000     1.145492   -3.2572394   -3.2572394   -1.5390049   0.29058276   -3.2572394    1.7182345      1024000 
  388000     1.146835   -3.2586994   -3.2586994   -1.5384504   0.28706695   -3.2586994     1.720249      1024000 
  389000    1.1459641   -3.2558646   -3.2558646   -1.5369219   0.29804279   -3.2558646    1.7189427      1024000 
  390000    1.1494513   -3.2595817   -3.2595817   -1.5354083   0.28879874   -3.2595817    1.7241735      1024000 
  391000    1.1494397   -3.2577631   -3.2577631    -1.533607   0.29189449   -3.2577631    1.7241561      1024000 
  392000    1.1496778    -3.257725    -3.257725   -1.5332118   0.29657412    -3.257725    1.7245131      1024000 
  393000    1.1508708   -3.2590967   -3.2590967   -1.5327941   0.30099604   -3.2590967    1.7263026      1024000 
  394000    1.1511112   -3.2592946   -3.2592946   -1.5326313   0.29942694   -3.2592946    1.7266633      1024000 
  395000    1.1517835   -3.2593482   -3.2593482   -1.5316765   0.29731402   -3.2593482    1.7276717      1024000 
  396000    1.1515552    -3.257578    -3.257578   -1.5302487   0.30211375    -3.257578    1.7273293      1024000 
  397000    1.1525061   -3.2575497   -3.2575497   -1.5287941   0.30096065   -3.2575497    1.7287556      1024000 
  398000    1.1523234   -3.2568701   -3.2568701   -1.5283886   0.30227977   -3.2568701    1.7284815      1024000 
  399000    1.1522444   -3.2564756   -3.2564756   -1.5281126   0.29556238   -3.2564756     1.728363      1024000 
  400000    1.1506662   -3.2527156   -3.2527156   -1.5267198   0.30012511   -3.2527156    1.7259958      1024000 
  401000    1.1507302   -3.2524933   -3.2524933   -1.5264015   0.29927347   -3.2524933    1.7260918      1024000 
  402000    1.1499281    -3.251789    -3.251789   -1.5269003   0.29404233    -3.251789    1.7248887      1024000 
  403000     1.150763   -3.2517414   -3.2517414   -1.5256004   0.29243159   -3.2517414     1.726141      1024000 
  404000    1.1507802   -3.2507776   -3.2507776   -1.5246108   0.28405285   -3.2507776    1.7261668      1024000 
  405000    1.1481103   -3.2482131   -3.2482131    -1.526051   0.28823067   -3.2482131     1.722162      1024000 
  406000    1.1466475   -3.2464484   -3.2464484   -1.5264806   0.28900237   -3.2464484    1.7199678      1024000 
  407000    1.1483142   -3.2476581   -3.2476581   -1.5251903   0.28161703   -3.2476581    1.7224678      1024000 
  408000    1.1471304    -3.245679    -3.245679    -1.524987   0.28034096    -3.245679     1.720692      1024000 
  409000       1.1465   -3.2442985   -3.2442985   -1.5245521   0.28457109   -3.2442985    1.7197464      1024000 
  410000    1.1464014   -3.2434109   -3.2434109   -1.5238124   0.28105485   -3.2434109    1.7195986      1024000 
  411000    1.1465748   -3.2438284   -3.2438284   -1.5239696   0.27758479   -3.2438284    1.7198587      1024000 
  412000    1.1440647   -3.2396495   -3.2396495   -1.5235559   0.27472671   -3.2396495    1.7160936      1024000 
  413000    1.1443558   -3.2403379   -3.2403379   -1.5238078   0.27736976   -3.2403379    1.7165301      1024000 
  414000    1.1446737   -3.2405855   -3.2405855   -1.5235784   0.27622063   -3.2405855    1.7170071      1024000 
  415000    1.1441794   -3.2389321   -3.2389321   -1.5226666   0.27266627   -3.2389321    1.7162655      1024000 
  416000    1.1441614   -3.2391026   -3.2391026   -1.5228641    0.2740702   -3.2391026    1.7162386      1024000 
  417000    1.1443546   -3.2389473   -3.2389473   -1.5224188    0.2664425   -3.2389473    1.7165285      1024000 
  418000    1.1420061   -3.2368712   -3.2368712   -1.5238655   0.26928042   -3.2368712    1.7130057      1024000 
  419000    1.1413296    -3.236124    -3.236124    -1.524133   0.27090255    -3.236124     1.711991      1024000 
  420000     1.142326   -3.2367766   -3.2367766   -1.5232912   0.26562543   -3.2367766    1.7134855      1024000 
  421000    1.1426079   -3.2362875   -3.2362875   -1.5223791   0.26659545   -3.2362875    1.7139083      1024000 
  422000     1.142188   -3.2345197   -3.2345197   -1.5212412   0.26873453   -3.2345197    1.7132785      1024000 
  423000    1.1430658   -3.2358597   -3.2358597   -1.5212645   0.26649242   -3.2358597    1.7145952      1024000 
  424000    1.1422452   -3.2345069   -3.2345069   -1.5211425   0.26682397   -3.2345069    1.7133644      1024000 
  425000    1.1412737   -3.2326779   -3.2326779   -1.5207708   0.27347926   -3.2326779    1.7119071      1024000 
  426000    1.1438321   -3.2347815   -3.2347815   -1.5190368   0.27337328   -3.2347815    1.7157447      1024000 
  427000    1.1436417   -3.2337898   -3.2337898   -1.5183307   0.26468681   -3.2337898    1.7154591      1024000 
  428000    1.1429553   -3.2326456   -3.2326456   -1.5182162    0.2693752   -3.2326456    1.7144294      1024000 
  429000    1.1432497   -3.2330998   -3.2330998   -1.5182288   0.26690008   -3.2330998     1.714871      1024000 
  430000    1.1424093   -3.2316622   -3.2316622   -1.5180518   0.27121108   -3.2316622    1.7136104      1024000 
  431000    1.1451572   -3.2343634   -3.2343634   -1.5166311    0.2741704   -3.2343634    1.7177323      1024000 
  432000    1.1447287   -3.2336952   -3.2336952   -1.5166056   0.27463499   -3.2336952    1.7170896      1024000 
  433000    1.1444102   -3.2328028   -3.2328028    -1.516191   0.27488125   -3.2328028    1.7166118      1024000 
  434000    1.1455723   -3.2335033   -3.2335033   -1.5151484   0.27511943   -3.2335033    1.7183549      1024000 
  435000    1.1453384   -3.2322126   -3.2322126   -1.5142084   0.28241902   -3.2322126    1.7180042      1024000 
  436000    1.1480636   -3.2361015   -3.2361015   -1.5140096   0.27730957   -3.2361015     1.722092      1024000 
  437000    1.1479691    -3.234916    -3.234916   -1.5129658   0.28268264    -3.234916    1.7219502      1024000 
  438000    1.1482897   -3.2344806   -3.2344806   -1.5120495   0.29219747   -3.2344806    1.7224311      1024000 
  439000    1.1490661   -3.2351098   -3.2351098   -1.5115142   0.28792239   -3.2351098    1.7235956      1024000 
  440000    1.1495808   -3.2357294   -3.2357294   -1.5113618   0.28420665   -3.2357294    1.7243677      1024000 
  441000    1.1500228   -3.2358951   -3.2358951   -1.5108643   0.28252378   -3.2358951    1.7250307      1024000 
  442000    1.1495561   -3.2337829   -3.2337829   -1.5094523    0.2928349   -3.2337829    1.7243306      1024000 
  443000    1.1505489   -3.2347337   -3.2347337   -1.5089139   0.29223533   -3.2347337    1.7258198      1024000 
  444000    1.1509401   -3.2346028   -3.2346028   -1.5081962   0.29456632   -3.2346028    1.7264066      1024000 
  445000    1.1501764   -3.2334968   -3.2334968   -1.5082357   0.29432569   -3.2334968    1.7252612      1024000 
  446000    1.1520603   -3.2357454   -3.2357454   -1.5076585   0.29399149   -3.2357454    1.7280869      1024000 
  447000    1.1518794   -3.2356199   -3.2356199   -1.5078044   0.28775552   -3.2356199    1.7278155      1024000 
  448000    1.1520642   -3.2344332   -3.2344332   -1.5063404   0.28764175   -3.2344332    1.7280927      1024000 
  449000    1.1523122   -3.2332355   -3.2332355   -1.5047708   0.29695428   -3.2332355    1.7284647      1024000 
  450000    1.1538524    -3.234383    -3.234383   -1.5036079   0.29509988    -3.234383    1.7307751      1024000 
  451000    1.1529439   -3.2337085   -3.2337085   -1.5042963   0.29631871   -3.2337085    1.7294123      1024000 
  452000    1.1536475   -3.2338457   -3.2338457   -1.5033779   0.29485954   -3.2338457    1.7304678      1024000 
  453000    1.1539258   -3.2335752   -3.2335752   -1.5026901   0.29076922   -3.2335752    1.7308851      1024000 
  454000    1.1547077    -3.233297    -3.233297   -1.5012389   0.29419652    -3.233297    1.7320581      1024000 
  455000    1.1554159   -3.2330686   -3.2330686   -1.4999482   0.29094417   -3.2330686    1.7331203      1024000 
  456000    1.1560482   -3.2337917   -3.2337917   -1.4997229   0.29009522   -3.2337917    1.7340688      1024000 
  457000    1.1541533   -3.2311454   -3.2311454   -1.4999189   0.29225784   -3.2311454    1.7312265      1024000 
  458000    1.1554787   -3.2326934   -3.2326934   -1.4994789    0.2945833   -3.2326934    1.7332145      1024000 
  459000    1.1541721   -3.2301083   -3.2301083   -1.4988537   0.29349536   -3.2301083    1.7312546      1024000 
  460000    1.1539257   -3.2286024   -3.2286024   -1.4977173   0.28857797   -3.2286024    1.7308851      1024000 
  461000     1.153587   -3.2266616   -3.2266616   -1.4962846   0.28814193   -3.2266616     1.730377      1024000 
  462000    1.1529887   -3.2254177   -3.2254177   -1.4959383   0.29098046   -3.2254177    1.7294795      1024000 
  463000    1.1533181   -3.2258558   -3.2258558   -1.4958821   0.28537321   -3.2258558    1.7299737      1024000 
  464000    1.1534443   -3.2248392   -3.2248392   -1.4946763     0.285453   -3.2248392     1.730163      1024000 
  465000    1.1550357   -3.2261718   -3.2261718   -1.4936218   0.28434676   -3.2261718      1.73255      1024000 
  466000    1.1548536   -3.2257981   -3.2257981   -1.4935212   0.28594705   -3.2257981    1.7322769      1024000 
  467000    1.1543897   -3.2245888   -3.2245888   -1.4930078    0.2844869   -3.2245888     1.731581      1024000 
  468000    1.1537999   -3.2228152   -3.2228152   -1.4921188   0.28708895   -3.2228152    1.7306964      1024000 
  469000    1.1535986   -3.2217054   -3.2217054    -1.491311   0.29375432   -3.2217054    1.7303944      1024000 
  470000     1.154282   -3.2230208   -3.2230208   -1.4916013   0.28956934   -3.2230208    1.7314195      1024000 
  471000    1.1541296   -3.2230631   -3.2230631   -1.4918722   0.28399297   -3.2230631    1.7311909      1024000 
  472000    1.1529699   -3.2221019   -3.2221019   -1.4926505   0.28420544   -3.2221019    1.7294514      1024000 
  473000    1.1533246   -3.2205739   -3.2205739   -1.4905906   0.28650523   -3.2205739    1.7299834      1024000 
  474000    1.1535875   -3.2205694   -3.2205694   -1.4901917   0.28517689   -3.2205694    1.7303777      1024000 
  475000     1.153348   -3.2211048   -3.2211048   -1.4910864   0.28242552   -3.2211048    1.7300184      1024000 
  476000    1.1541146   -3.2227351   -3.2227351   -1.4915667   0.27914044   -3.2227351    1.7311684      1024000 
  477000    1.1533077   -3.2205629   -3.2205629   -1.4906049   0.28327732   -3.2205629     1.729958      1024000 
  478000    1.1524792   -3.2187378   -3.2187378   -1.4900225   0.28302941   -3.2187378    1.7287153      1024000 
  479000     1.153284    -3.219542    -3.219542   -1.4896195   0.27992166    -3.219542    1.7299225      1024000 
  480000    1.1528906    -3.218144    -3.218144   -1.4888116    0.2843972    -3.218144    1.7293323      1024000 
  481000    1.1527164   -3.2172139   -3.2172139   -1.4881428   0.28667931   -3.2172139     1.729071      1024000 
  482000    1.1546481   -3.2187418   -3.2187418   -1.4867732   0.28148158   -3.2187418    1.7319686      1024000 
  483000    1.1524238    -3.215155    -3.215155   -1.4865229   0.28845317    -3.215155    1.7286322      1024000 
  484000    1.1551666   -3.2183154   -3.2183154    -1.485569   0.28590331   -3.2183154    1.7327464      1024000 
  485000    1.1559143   -3.2179596   -3.2179596   -1.4840917   0.28412406   -3.2179596    1.7338679      1024000 
  486000    1.1572768   -3.2195795   -3.2195795   -1.4836678   0.28653122   -3.2195795    1.7359117      1024000 
  487000    1.1577618   -3.2198249   -3.2198249   -1.4831858   0.28267697   -3.2198249    1.7366392      1024000 
  488000    1.1566104   -3.2165636   -3.2165636   -1.4816515   0.29158943   -3.2165636    1.7349121      1024000 
  489000    1.1581122   -3.2196739   -3.2196739   -1.4825092   0.28722797   -3.2196739    1.7371647      1024000 
  490000     1.159779   -3.2218615   -3.2218615   -1.4821965   0.28962511   -3.2218615     1.739665      1024000 
  491000    1.1578706   -3.2187026   -3.2187026   -1.4819003   0.29446529   -3.2187026    1.7368023      1024000 
  492000    1.1583176   -3.2179427   -3.2179427   -1.4804697   0.29665988   -3.2179427    1.7374729      1024000 
  493000    1.1600002   -3.2192559   -3.2192559   -1.4792592   0.29224581   -3.2192559    1.7399967      1024000 
  494000    1.1596319   -3.2175708   -3.2175708   -1.4781265   0.29481385   -3.2175708    1.7394443      1024000 
  495000     1.159947   -3.2167711   -3.2167711   -1.4768542   0.29563488   -3.2167711     1.739917      1024000 
  496000    1.1604098   -3.2171823   -3.2171823   -1.4765712   0.30061777   -3.2171823    1.7406111      1024000 
  497000    1.1594136   -3.2158554   -3.2158554   -1.4767385   0.29769151   -3.2158554    1.7391169      1024000 
  498000    1.1609781    -3.216335    -3.216335   -1.4748714   0.29840425    -3.216335    1.7414636      1024000 
  499000    1.1616401   -3.2165384   -3.2165384   -1.4740818   0.29610886   -3.2165384    1.7424567      1024000 
  500000    1.1610903    -3.215762    -3.215762   -1.4741301   0.30162157    -3.215762    1.7416319      1024000 
  501000    1.1618153   -3.2171077   -3.2171077   -1.4743882   0.29501644   -3.2171077    1.7427195      1024000 
  502000    1.1610126   -3.2167243   -3.2167243   -1.4752089   0.29778526   -3.2167243    1.7415154      1024000 
  503000    1.1608598   -3.2153054   -3.2153054   -1.4740193   0.29695923   -3.2153054    1.7412862      1024000 
  504000    1.1602906   -3.2142061   -3.2142061   -1.4737737   0.30420101   -3.2142061    1.7404324      1024000 
  505000     1.161384   -3.2151468   -3.2151468   -1.4730743   0.29592032   -3.2151468    1.7420725      1024000 
  506000    1.1600243   -3.2131265   -3.2131265   -1.4730936   0.30156804   -3.2131265    1.7400329      1024000 
  507000    1.1619329   -3.2152366   -3.2152366   -1.4723407   0.29852915   -3.2152366    1.7428959      1024000 
  508000    1.1613995   -3.2148415   -3.2148415   -1.4727457   0.29731869   -3.2148415    1.7420957      1024000 
  509000    1.1607905   -3.2132258   -3.2132258   -1.4720435   0.29576215   -3.2132258    1.7411822      1024000 
  510000    1.1613232   -3.2143956   -3.2143956   -1.4724143   0.29739333   -3.2143956    1.7419813      1024000 
  511000    1.1615615   -3.2143592   -3.2143592   -1.4720205   0.29741321   -3.2143592    1.7423387      1024000 
  512000     1.160809   -3.2136989   -3.2136989   -1.4724889   0.29670735   -3.2136989      1.74121      1024000 
  513000    1.1604344   -3.2118195   -3.2118195   -1.4711714   0.29942561   -3.2118195    1.7406481      1024000 
  514000    1.1600141   -3.2107451   -3.2107451   -1.4707274   0.29560874   -3.2107451    1.7400177      1024000 
  515000    1.1606195   -3.2108695   -3.2108695   -1.4699438   0.29730015   -3.2108695    1.7409257      1024000 
  516000    1.1597241   -3.2090993   -3.2090993   -1.4695166   0.29984903   -3.2090993    1.7395827      1024000 
  517000    1.1617471   -3.2113638   -3.2113638   -1.4687466   0.29159539   -3.2113638    1.7426172      1024000 
  518000    1.1603157   -3.2089389   -3.2089389    -1.468469   0.29597691   -3.2089389      1.74047      1024000 
  519000    1.1605396   -3.2082947   -3.2082947   -1.4674888   0.29598626   -3.2082947    1.7408059      1024000 
  520000    1.1600658   -3.2071314   -3.2071314   -1.4670363   0.29133822   -3.2071314    1.7400951      1024000 
  521000    1.1603313   -3.2071912   -3.2071912   -1.4666977   0.29431458   -3.2071912    1.7404935      1024000 
  522000     1.159841   -3.2063143   -3.2063143   -1.4665564   0.29518233   -3.2063143     1.739758      1024000 
  523000    1.1604717   -3.2066384   -3.2066384   -1.4659343   0.28838208   -3.2066384    1.7407041      1024000 
  524000      1.15878   -3.2034123   -3.2034123   -1.4652458   0.29620756   -3.2034123    1.7381665      1024000 
  525000    1.1598953   -3.2039194   -3.2039194     -1.46408   0.29132503   -3.2039194    1.7398394      1024000 
  526000    1.1600117   -3.2040676   -3.2040676   -1.4640535   0.28900448   -3.2040676    1.7400141      1024000 
  527000    1.1599224   -3.2026709   -3.2026709   -1.4627909   0.29364003   -3.2026709      1.73988      1024000 
  528000    1.1594911   -3.2031841   -3.2031841   -1.4639511   0.28743061   -3.2031841    1.7392331      1024000 
  529000    1.1596965   -3.2032309   -3.2032309   -1.4636897   0.28823001   -3.2032309    1.7395413      1024000 
  530000    1.1611187   -3.2036681   -3.2036681   -1.4619935   0.28970115   -3.2036681    1.7416745      1024000 
  531000    1.1596709   -3.2012526   -3.2012526   -1.4617497   0.29322812   -3.2012526    1.7395029      1024000 
  532000     1.161382   -3.2028973   -3.2028973   -1.4608278   0.29037802   -3.2028973    1.7420695      1024000 
  533000    1.1612632   -3.2032134   -3.2032134   -1.4613222   0.29225906   -3.2032134    1.7418913      1024000 
  534000    1.1599062   -3.2002257   -3.2002257     -1.46037   0.29046454   -3.2002257    1.7398557      1024000 
  535000      1.16084   -3.2018213   -3.2018213   -1.4605648   0.28684949   -3.2018213    1.7412565      1024000 
  536000    1.1617479   -3.2026124   -3.2026124   -1.4599941   0.28997823   -3.2026124    1.7426183      1024000 
  537000    1.1611436   -3.2006471   -3.2006471   -1.4589352    0.2915587   -3.2006471    1.7417119      1024000 
  538000    1.1619566   -3.2024698   -3.2024698   -1.4595384   0.29257503   -3.2024698    1.7429314      1024000 
  539000    1.1622173   -3.2014532   -3.2014532   -1.4581309   0.28977229   -3.2014532    1.7433223      1024000 
  540000    1.1625701   -3.2001354   -3.2001354   -1.4562837   0.29328957   -3.2001354    1.7438516      1024000 
  541000    1.1617294   -3.1989524   -3.1989524   -1.4563617   0.29653126   -3.1989524    1.7425906      1024000 
  542000    1.1647473   -3.2023179   -3.2023179   -1.4552005    0.2929265   -3.2023179    1.7471173      1024000 
  543000    1.1651558   -3.2019716   -3.2019716   -1.4542413   0.29446209   -3.2019716    1.7477302      1024000 
  544000    1.1630573   -3.1989383   -3.1989383   -1.4543558   0.29494368   -3.1989383    1.7445824      1024000 
  545000    1.1653008    -3.201422    -3.201422   -1.4534743   0.28941444    -3.201422    1.7479476      1024000 
  546000    1.1639406   -3.1990353   -3.1990353   -1.4531279   0.29987712   -3.1990353    1.7459073      1024000 
  547000    1.1644047   -3.1998685   -3.1998685    -1.453265   0.29611713   -3.1998685    1.7466035      1024000 
  548000    1.1640886   -3.1989094   -3.1989094   -1.4527801   0.30144068   -3.1989094    1.7461294      1024000 
  549000    1.1646578   -3.1983524   -3.1983524   -1.4513693     0.300406   -3.1983524    1.7469831      1024000 
  550000    1.1651483    -3.198671    -3.198671    -1.450952   0.30177615    -3.198671    1.7477189      1024000 
  551000    1.1653475   -3.1995994   -3.1995994   -1.4515818   0.30221274   -3.1995994    1.7480176      1024000 
  552000    1.1640871    -3.196576    -3.196576   -1.4504489   0.30127269    -3.196576     1.746127      1024000 
  553000     1.166322   -3.1981821   -3.1981821   -1.4487026   0.29820048   -3.1981821    1.7494795      1024000 
  554000    1.1676257   -3.1995366   -3.1995366   -1.4481016   0.30046998   -3.1995366     1.751435      1024000 
  555000    1.1672057   -3.1988921   -3.1988921    -1.448087   0.29931514   -3.1988921     1.750805      1024000 
  556000     1.166927    -3.198059    -3.198059    -1.447672   0.30194794    -3.198059     1.750387      1024000 
  557000    1.1669073   -3.1973296   -3.1973296   -1.4469721   0.30159759   -3.1973296    1.7503574      1024000 
  558000    1.1669159   -3.1966834   -3.1966834   -1.4463131   0.30278539   -3.1966834    1.7503703      1024000 
  559000    1.1681911   -3.1984695   -3.1984695   -1.4461865   0.29908466   -3.1984695    1.7522831      1024000 
  560000    1.1676722   -3.1972109   -3.1972109   -1.4457063   0.29737406   -3.1972109    1.7515047      1024000 
  561000    1.1663607   -3.1946571   -3.1946571   -1.4451196   0.30388152   -3.1946571    1.7495375      1024000 
  562000    1.1677802     -3.19595     -3.19595   -1.4442833   0.30421517     -3.19595    1.7516667      1024000 
  563000    1.1680467   -3.1953606   -3.1953606   -1.4432941    0.3014003   -3.1953606    1.7520665      1024000 
  564000    1.1679106   -3.1956368   -3.1956368   -1.4437745   0.30682899   -3.1956368    1.7518623      1024000 
  565000    1.1690744   -3.1956819   -3.1956819   -1.4420738   0.30282999   -3.1956819    1.7536081      1024000 
  566000    1.1687549   -3.1940851   -3.1940851   -1.4409562   0.30608729   -3.1940851    1.7531288      1024000 
  567000    1.1695568   -3.1955672   -3.1955672   -1.4412356   0.29986369   -3.1955672    1.7543316      1024000 
  568000    1.1675205   -3.1920796   -3.1920796   -1.4408023   0.30451038   -3.1920796    1.7512772      1024000 
  569000    1.1690738   -3.1936499   -3.1936499   -1.4400428   0.29932644   -3.1936499    1.7536071      1024000 
  570000    1.1685149   -3.1914284   -3.1914284   -1.4386596   0.30402649   -3.1914284    1.7527688      1024000 
  571000    1.1708274   -3.1937897   -3.1937897   -1.4375522   0.30126365   -3.1937897    1.7562375      1024000 
  572000    1.1682194   -3.1907278   -3.1907278   -1.4384023   0.30465985   -3.1907278    1.7523255      1024000 
  573000    1.1696799   -3.1926286   -3.1926286   -1.4381123   0.29766455   -3.1926286    1.7545163      1024000 
  574000    1.1683862   -3.1907346   -3.1907346   -1.4381589   0.29587905   -3.1907346    1.7525757      1024000 
  575000     1.167697   -3.1885215   -3.1885215   -1.4369795   0.29953227   -3.1885215     1.751542      1024000 
  576000     1.168719    -3.189764    -3.189764    -1.436689   0.29715247    -3.189764     1.753075      1024000 
  577000    1.1678858   -3.1886124   -3.1886124   -1.4367873   0.30045182   -3.1886124    1.7518251      1024000 
  578000    1.1683249     -3.18794     -3.18794   -1.4354563   0.30193073     -3.18794    1.7524837      1024000 
  579000    1.1682279    -3.187736    -3.187736   -1.4353978   0.30417192    -3.187736    1.7523382      1024000 
  580000    1.1701095   -3.1902908   -3.1902908   -1.4351302   0.29555286   -3.1902908    1.7551606      1024000 
  581000    1.1701192   -3.1890661   -3.1890661   -1.4338909   0.30261722   -3.1890661    1.7551753      1024000 
  582000    1.1694097   -3.1883574   -3.1883574   -1.4342463   0.29856711   -3.1883574    1.7541111      1024000 
  583000    1.1690722   -3.1870141   -3.1870141   -1.4334093   0.30390939   -3.1870141    1.7536047      1024000 
  584000    1.1709594   -3.1885568   -3.1885568   -1.4321213   0.29999705   -3.1885568    1.7564355      1024000 
  585000    1.1692454   -3.1861931   -3.1861931   -1.4323285   0.29688227   -3.1861931    1.7538646      1024000 
  586000    1.1697797   -3.1863729   -3.1863729   -1.4317069   0.29619619   -3.1863729    1.7546659      1024000 
  587000     1.170626   -3.1870025   -3.1870025   -1.4310671   0.29696441   -3.1870025    1.7559354      1024000 
  588000     1.169794   -3.1852162   -3.1852162   -1.4305287   0.29813711   -3.1852162    1.7546874      1024000 
  589000    1.1701642   -3.1848833   -3.1848833   -1.4296406   0.29978905   -3.1848833    1.7552427      1024000 
  590000    1.1699214    -3.184914    -3.184914   -1.4300354   0.29820243    -3.184914    1.7548786      1024000 
  591000    1.1707514   -3.1859561   -3.1859561   -1.4298325    0.2961196   -3.1859561    1.7561235      1024000 
  592000    1.1704469   -3.1854896   -3.1854896   -1.4298228   0.30092495   -3.1854896    1.7556669      1024000 
  593000    1.1713658   -3.1859636   -3.1859636   -1.4289184   0.30433477   -3.1859636    1.7570452      1024000 
  594000    1.1711085   -3.1846977   -3.1846977   -1.4280385   0.29877952   -3.1846977    1.7566592      1024000 
  595000    1.1709094    -3.183168    -3.183168   -1.4268075   0.30234299    -3.183168    1.7563605      1024000 
  596000    1.1730385   -3.1851403   -3.1851403   -1.4255862   0.29901249   -3.1851403    1.7595541      1024000 
  597000    1.1722517   -3.1830659   -3.1830659   -1.4246918   0.30195838   -3.1830659     1.758374      1024000 
  598000     1.172053   -3.1830064   -3.1830064   -1.4249305   0.30405855   -3.1830064    1.7580759      1024000 
  599000    1.1731708   -3.1843447   -3.1843447   -1.4245921    0.2993466   -3.1843447    1.7597526      1024000 
  600000    1.1726379   -3.1827437   -3.1827437   -1.4237905   0.30241566   -3.1827437    1.7589532      1024000 
  601000    1.1718932   -3.1816622   -3.1816622   -1.4238259    0.3056169   -3.1816622    1.7578363      1024000 
  602000    1.1730285   -3.1826437   -3.1826437   -1.4231045   0.30432692   -3.1826437    1.7595392      1024000 
  603000    1.1736371   -3.1817328   -3.1817328   -1.4212808   0.30524101   -3.1817328     1.760452      1024000 
  604000    1.1742826   -3.1827099   -3.1827099   -1.4212896   0.30325776   -3.1827099    1.7614203      1024000 
  605000    1.1723642   -3.1787296   -3.1787296   -1.4201869   0.30433902   -3.1787296    1.7585427      1024000 
  606000    1.1725369   -3.1798152   -3.1798152   -1.4210134   0.31072178   -3.1798152    1.7588017      1024000 
  607000    1.1733195   -3.1806647   -3.1806647    -1.420689   0.30902423   -3.1806647    1.7599757      1024000 
  608000    1.1752438   -3.1821448   -3.1821448   -1.4192827   0.30646238   -3.1821448    1.7628622      1024000 
  609000     1.176228   -3.1829083   -3.1829083   -1.4185699    0.3101794   -3.1829083    1.7643384      1024000 
  610000    1.1760066   -3.1820461   -3.1820461   -1.4180397   0.30798277   -3.1820461    1.7640064      1024000 
  611000    1.1766337   -3.1821367   -3.1821367   -1.4171898   0.30942804   -3.1821367    1.7649469      1024000 
  612000    1.1772855   -3.1831666   -3.1831666   -1.4172419   0.30897037   -3.1831666    1.7659246      1024000 
  613000     1.176105   -3.1810205   -3.1810205   -1.4168665   0.31114958   -3.1810205     1.764154      1024000 
  614000    1.1753766   -3.1799329   -3.1799329   -1.4168716   0.30983326   -3.1799329    1.7630613      1024000 
  615000    1.1761464    -3.179521    -3.179521   -1.4153049   0.31091072    -3.179521     1.764216      1024000 
  616000     1.176391   -3.1789605   -3.1789605   -1.4143776    0.3093864   -3.1789605     1.764583      1024000 
  617000    1.1765904   -3.1783479   -3.1783479    -1.413466   0.30963967   -3.1783479    1.7648819      1024000 
  618000    1.1778837   -3.1791111   -3.1791111   -1.4122892   0.30729979   -3.1791111     1.766822      1024000 
  619000    1.1768545   -3.1780182   -3.1780182   -1.4127401    0.3075249   -3.1780182    1.7652781      1024000 
  620000    1.1755828    -3.175503    -3.175503   -1.4121324   0.30648645    -3.175503    1.7633706      1024000 
  621000    1.1777461   -3.1777205   -3.1777205   -1.4111049   0.30622303   -3.1777205    1.7666156      1024000 
  622000    1.1760714   -3.1750752   -3.1750752   -1.4109717   0.31025302   -3.1750752    1.7641035      1024000 
  623000    1.1753058   -3.1750213   -3.1750213   -1.4120661   0.30836034   -3.1750213    1.7629551      1024000 
  624000    1.1749869   -3.1745428   -3.1745428    -1.412066    0.3062937   -3.1745428    1.7624768      1024000 
  625000    1.1763034   -3.1752768   -3.1752768   -1.4108254   0.30555875   -3.1752768    1.7644515      1024000 
  626000    1.1767641   -3.1747067   -3.1747067    -1.409564   0.30541972   -3.1747067    1.7651426      1024000 
  627000    1.1761237   -3.1748175   -3.1748175   -1.4106355   0.30515375   -3.1748175     1.764182      1024000 
  628000    1.1770825   -3.1742174   -3.1742174   -1.4085972    0.3041397   -3.1742174    1.7656202      1024000 
  629000    1.1763655   -3.1719943   -3.1719943   -1.4074497   0.30608205   -3.1719943    1.7645446      1024000 
  630000    1.1752074   -3.1703949   -3.1703949   -1.4075874   0.30946524   -3.1703949    1.7628075      1024000 
  631000    1.1769406   -3.1726366   -3.1726366   -1.4072293   0.30273511   -3.1726366    1.7654073      1024000 
  632000    1.1758244   -3.1707465   -3.1707465   -1.4070135   0.30859656   -3.1707465     1.763733      1024000 
  633000    1.1759006   -3.1710254   -3.1710254   -1.4071781   0.30567819   -3.1710254    1.7638473      1024000 
  634000     1.175804   -3.1703646   -3.1703646   -1.4066621   0.30564097   -3.1703646    1.7637025      1024000 
  635000    1.1761397   -3.1705248   -3.1705248   -1.4063189   0.30507691   -3.1705248    1.7642059      1024000 
  636000    1.1773144     -3.17156     -3.17156    -1.405592   0.30236987     -3.17156     1.765968      1024000 
  637000    1.1764105   -3.1700278   -3.1700278   -1.4054156   0.30314655   -3.1700278    1.7646122      1024000 
  638000    1.1758616   -3.1684359   -3.1684359   -1.4046472   0.30493861   -3.1684359    1.7637888      1024000 
  639000    1.1760629   -3.1681492   -3.1681492   -1.4040584   0.30272255   -3.1681492    1.7640908      1024000 
  640000    1.1769618   -3.1673649   -3.1673649   -1.4019258   0.31059157   -3.1673649    1.7654391      1024000 
  641000    1.1771975   -3.1669211   -3.1669211   -1.4011284   0.30650126   -3.1669211    1.7657927      1024000 
  642000     1.178731   -3.1689321   -3.1689321   -1.4008392   0.30735324   -3.1689321    1.7680928      1024000 
  643000     1.178378   -3.1665384   -3.1665384    -1.398975   0.31182161   -3.1665384    1.7675634      1024000 
  644000    1.1782072   -3.1670603   -3.1670603   -1.3997531   0.30877901   -3.1670603    1.7673072      1024000 
  645000    1.1787075   -3.1670673   -3.1670673   -1.3990097   0.31373596   -3.1670673    1.7680576      1024000 
  646000    1.1792739   -3.1687411   -3.1687411   -1.3998337   0.31201183   -3.1687411    1.7689073      1024000 
  647000    1.1789645    -3.167605    -3.167605   -1.3991618   0.30855062    -3.167605    1.7684431      1024000 
  648000    1.1795909    -3.168166    -3.168166   -1.3987833   0.30360238    -3.168166    1.7693828      1024000 
  649000    1.1787665     -3.16671     -3.16671   -1.3985638   0.31023748     -3.16671    1.7681462      1024000 
  650000    1.1797031   -3.1677743   -3.1677743   -1.3982232   0.30782696   -3.1677743    1.7695511      1024000 
  651000    1.1794392   -3.1657363   -3.1657363   -1.3965811   0.31158206   -3.1657363    1.7691551      1024000 
  652000    1.1802914   -3.1665328   -3.1665328   -1.3960993   0.31280989   -3.1665328    1.7704335      1024000 
  653000    1.1796406   -3.1651585   -3.1651585   -1.3957012   0.31162141   -3.1651585    1.7694573      1024000 
  654000    1.1803896    -3.165939    -3.165939   -1.3953582   0.31143889    -3.165939    1.7705808      1024000 
  655000    1.1801791   -3.1650092   -3.1650092   -1.3947442   0.30801204   -3.1650092     1.770265      1024000 
  656000     1.181734   -3.1657068   -3.1657068   -1.3931094   0.31251482   -3.1657068    1.7725974      1024000 
  657000    1.1807906   -3.1642801   -3.1642801   -1.3930979   0.31537962   -3.1642801    1.7711822      1024000 
  658000    1.1810038   -3.1645616   -3.1645616   -1.3930594   0.30974129   -3.1645616    1.7715021      1024000 
  659000    1.1795049   -3.1620977   -3.1620977    -1.392844   0.30873427   -3.1620977    1.7692537      1024000 
  660000    1.1797974   -3.1624594   -3.1624594   -1.3927669   0.31457921   -3.1624594    1.7696925      1024000 
  661000    1.1803089   -3.1633281   -3.1633281   -1.3928683   0.31279674   -3.1633281    1.7704598      1024000 
  662000    1.1792141   -3.1609849   -3.1609849   -1.3921673   0.31100898   -3.1609849    1.7688176      1024000 
  663000    1.1800583    -3.161509    -3.161509   -1.3914251   0.31208073    -3.161509    1.7700839      1024000 
  664000    1.1824698   -3.1637003   -3.1637003   -1.3899992   0.31252095   -3.1637003    1.7737011      1024000 
  665000    1.1819259   -3.1625292   -3.1625292   -1.3896439   0.31411636   -3.1625292    1.7728853      1024000 
  666000    1.1823762   -3.1626914   -3.1626914   -1.3891307   0.31707281   -3.1626914    1.7735607      1024000 
  667000    1.1845734   -3.1640022   -3.1640022   -1.3871458   0.31151747   -3.1640022    1.7768564      1024000 
  668000    1.1833149   -3.1616267   -3.1616267    -1.386658   0.31815127   -3.1616267    1.7749687      1024000 
  669000    1.1837334   -3.1620756   -3.1620756   -1.3864791   0.31545251   -3.1620756    1.7755965      1024000 
  670000    1.1846901   -3.1628035   -3.1628035    -1.385772   0.31284277   -3.1628035    1.7770315      1024000 
  671000    1.1841348   -3.1612669   -3.1612669   -1.3850684   0.31760446   -3.1612669    1.7761985      1024000 
  672000    1.1838833   -3.1601399   -3.1601399   -1.3843185   0.31210004   -3.1601399    1.7758214      1024000 
  673000    1.1847167   -3.1610739   -3.1610739   -1.3840024   0.31223845   -3.1610739    1.7770715      1024000 
  674000    1.1845137   -3.1601725   -3.1601725   -1.3834056   0.31858438   -3.1601725    1.7767669      1024000 
  675000    1.1846912   -3.1593148   -3.1593148   -1.3822816   0.31590821   -3.1593148    1.7770332      1024000 
  676000    1.1862926   -3.1603484   -3.1603484   -1.3809131   0.31283386   -3.1603484    1.7794353      1024000 
  677000    1.1867392   -3.1601523   -3.1601523   -1.3800471   0.31260287   -3.1601523    1.7801052      1024000 
  678000    1.1860281   -3.1589484   -3.1589484   -1.3799099   0.32044027   -3.1589484    1.7790385      1024000 
  679000    1.1860782   -3.1588961   -3.1588961   -1.3797825   0.31306864   -3.1588961    1.7791136      1024000 
  680000    1.1847768   -3.1581747   -3.1581747   -1.3810132   0.31360447   -3.1581747    1.7771615      1024000 
  681000    1.1834364   -3.1558949   -3.1558949   -1.3807439   0.31960421   -3.1558949     1.775151      1024000 
  682000    1.1849529   -3.1573235   -3.1573235   -1.3798978   0.31125896   -3.1573235    1.7774257      1024000 
[...]
  837000    1.2086175   -3.1106234   -3.1106234   -1.2977008   0.33566256   -3.1106234    1.8129226      1024000 
  838000    1.2092241   -3.1103684   -3.1103684   -1.2965359   0.33295034   -3.1103684    1.8138325      1024000 
  839000    1.2093275   -3.1082584   -3.1082584   -1.2942708    0.3381339   -3.1082584    1.8139876      1024000 
  840000    1.2110145   -3.1110612   -3.1110612   -1.2945431    0.3358147   -3.1110612    1.8165181      1024000 
  841000    1.2089738   -3.1080346   -3.1080346   -1.2945776   0.34551017   -3.1080346    1.8134571      1024000 
  842000    1.2105431   -3.1086832   -3.1086832   -1.2928722   0.34461714   -3.1086832     1.815811      1024000 
  843000    1.2110007   -3.1089098   -3.1089098   -1.2924125   0.33647739   -3.1089098    1.8164974      1024000 
  844000    1.2110134   -3.1080929   -3.1080929   -1.2915766   0.34549291   -3.1080929    1.8165163      1024000 
  845000    1.2124662   -3.1094279   -3.1094279   -1.2907323    0.3386658   -3.1094279    1.8186956      1024000 
  846000    1.2127539   -3.1091859   -3.1091859   -1.2900587   0.33586811   -3.1091859    1.8191271      1024000 
  847000    1.2135823   -3.1096001   -3.1096001   -1.2892302   0.33977079   -3.1096001    1.8203698      1024000 
  848000    1.2132466   -3.1089912   -3.1089912    -1.289125   0.34157127   -3.1089912    1.8198662      1024000 
  849000    1.2120264    -3.106794    -3.106794   -1.2887582   0.34514996    -3.106794    1.8180358      1024000 
  850000    1.2138802   -3.1088389   -3.1088389   -1.2880223   0.33910785   -3.1088389    1.8208166      1024000 
  851000    1.2131824   -3.1081605   -3.1081605   -1.2883906   0.34296469   -3.1081605    1.8197699      1024000 
  852000    1.2137911   -3.1084251   -3.1084251   -1.2877422   0.34455764   -3.1084251     1.820683      1024000 
  853000    1.2148769   -3.1095929   -3.1095929   -1.2872812   0.34499199   -3.1095929    1.8223117      1024000 
  854000     1.214742   -3.1079349   -3.1079349   -1.2858257    0.3415321   -3.1079349    1.8221093      1024000 
  855000    1.2153437   -3.1076615   -3.1076615   -1.2846497   0.34481086   -3.1076615    1.8230118      1024000 
  856000    1.2152453   -3.1071371   -3.1071371   -1.2842729   0.34804113   -3.1071371    1.8228642      1024000 
  857000    1.2144025   -3.1060894   -3.1060894   -1.2844893    0.3475338   -3.1060894    1.8216001      1024000 
  858000    1.2157579   -3.1079182   -3.1079182    -1.284285   0.34033971   -3.1079182    1.8236332      1024000 
  859000    1.2146594   -3.1063383   -3.1063383   -1.2843529   0.34713213   -3.1063383    1.8219854      1024000 
  860000    1.2134859   -3.1032405   -3.1032405   -1.2830154    0.3490874   -3.1032405    1.8202251      1024000 
  861000    1.2144004   -3.1037425   -3.1037425   -1.2821455   0.34591123   -3.1037425     1.821597      1024000 
  862000     1.214162   -3.1035194   -3.1035194   -1.2822801   0.34898522   -3.1035194    1.8212393      1024000 
  863000    1.2145577   -3.1031466   -3.1031466   -1.2813137   0.34531171   -3.1031466    1.8218329      1024000 
  864000    1.2150974   -3.1038135   -3.1038135   -1.2811711   0.34393067   -3.1038135    1.8226424      1024000 
  865000    1.2139168    -3.101003    -3.101003   -1.2801316   0.34148746    -3.101003    1.8208714      1024000 
  866000    1.2138239   -3.1011833   -3.1011833   -1.2804511   0.34117895   -3.1011833    1.8207322      1024000 
  867000    1.2137153   -3.1007842   -3.1007842    -1.280215   0.34197772   -3.1007842    1.8205693      1024000 
  868000     1.214548   -3.1020325   -3.1020325   -1.2802142   0.33916953   -3.1020325    1.8218183      1024000 
  869000    1.2150831   -3.1015272   -3.1015272   -1.2789063    0.3417896   -3.1015272    1.8226209      1024000 
  870000    1.2140757   -3.0992367   -3.0992367   -1.2781268   0.34190653   -3.0992367    1.8211099      1024000 
  871000    1.2147882   -3.0996019   -3.0996019   -1.2774233    0.3372368   -3.0996019    1.8221786      1024000 
  872000    1.2154145   -3.0997271   -3.0997271   -1.2766091   0.34019722   -3.0997271    1.8231181      1024000 
  873000    1.2146834   -3.0985363   -3.0985363   -1.2765149   0.34619381   -3.0985363    1.8220214      1024000 
  874000    1.2159624    -3.099193    -3.099193   -1.2752532   0.34229356    -3.099193    1.8239399      1024000 
  875000    1.2148645   -3.0962904   -3.0962904   -1.2739972   0.34344462   -3.0962904    1.8222931      1024000 
  876000    1.2160661   -3.0981371   -3.0981371   -1.2740416   0.34015874   -3.0981371    1.8240954      1024000 
  877000    1.2167536   -3.0984936   -3.0984936   -1.2733669   0.34038807   -3.0984936    1.8251267      1024000 
  878000    1.2154903   -3.0960931   -3.0960931   -1.2728614   0.34530364   -3.0960931    1.8232317      1024000 
  879000    1.2180909   -3.0991541   -3.0991541   -1.2720215   0.33949735   -3.0991541    1.8271326      1024000 
  880000    1.2168234    -3.097312    -3.097312   -1.2720805   0.34348626    -3.097312    1.8252315      1024000 
  881000    1.2161085   -3.0968418   -3.0968418   -1.2726827   0.34296221   -3.0968418    1.8241591      1024000 
  882000    1.2171103   -3.0978236   -3.0978236   -1.2721618   0.33577201   -3.0978236    1.8256618      1024000 
  883000    1.2173068   -3.0969556   -3.0969556   -1.2709991   0.34122691   -3.0969556    1.8259564      1024000 
  884000     1.217701   -3.0963627   -3.0963627   -1.2698149   0.33680091   -3.0963627    1.8265478      1024000 
  885000    1.2181357   -3.0965201   -3.0965201   -1.2693202   0.33868538   -3.0965201    1.8271999      1024000 
  886000    1.2174047   -3.0957898   -3.0957898   -1.2696865   0.34050544   -3.0957898    1.8261033      1024000 
  887000    1.2183243   -3.0965505   -3.0965505   -1.2690679   0.34010116   -3.0965505    1.8274827      1024000 
  888000    1.2186747    -3.096667    -3.096667   -1.2686587   0.34640504    -3.096667    1.8280083      1024000 
  889000    1.2178493   -3.0941356   -3.0941356   -1.2673654   0.34822932   -3.0941356    1.8267702      1024000 
  890000    1.2166654   -3.0938771   -3.0938771   -1.2688827   0.35077957   -3.0938771    1.8249945      1024000 
  891000    1.2190051   -3.0963269   -3.0963269    -1.267823   0.34126495   -3.0963269    1.8285039      1024000 
  892000    1.2174018   -3.0942682   -3.0942682   -1.2681692    0.3446304   -3.0942682    1.8260991      1024000 
  893000    1.2182499   -3.0939566   -3.0939566   -1.2665854   0.34880542   -3.0939566    1.8273712      1024000 
  894000    1.2190118   -3.0940074   -3.0940074   -1.2654934   0.34604992   -3.0940074     1.828514      1024000 
  895000    1.2185248   -3.0944642   -3.0944642   -1.2666808   0.35002085   -3.0944642    1.8277834      1024000 
  896000    1.2194435   -3.0947467   -3.0947467   -1.2655851    0.3448593   -3.0947467    1.8291616      1024000 
  897000    1.2198861   -3.0938399   -3.0938399   -1.2640145   0.34816345   -3.0938399    1.8298255      1024000 
  898000     1.219911   -3.0939124   -3.0939124   -1.2640496   0.35223073   -3.0939124    1.8298627      1024000 
  899000    1.2192053   -3.0918168   -3.0918168   -1.2630125    0.3484133   -3.0918168    1.8288043      1024000 
  900000     1.220693   -3.0934247   -3.0934247   -1.2623889   0.34528751   -3.0934247    1.8310358      1024000 
  901000    1.2197046   -3.0918964   -3.0918964   -1.2623433   0.34552332   -3.0918964    1.8295532      1024000 
  902000    1.2205121   -3.0916497   -3.0916497   -1.2608853   0.35065128   -3.0916497    1.8307644      1024000 
  903000    1.2209058    -3.092314    -3.092314   -1.2609591   0.34850644    -3.092314    1.8313549      1024000 
  904000    1.2230516   -3.0931858   -3.0931858   -1.2586121    0.3510068   -3.0931858    1.8345737      1024000 
  905000    1.2233809   -3.0931597   -3.0931597   -1.2580921   0.34780319   -3.0931597    1.8350677      1024000 
  906000     1.223176   -3.0923084   -3.0923084   -1.2575481    0.3453524   -3.0923084    1.8347603      1024000 
  907000    1.2226517   -3.0910478   -3.0910478    -1.257074   0.35409465   -3.0910478    1.8339738      1024000 
  908000    1.2220161   -3.0898964   -3.0898964   -1.2568759   0.35405632   -3.0898964    1.8330205      1024000 
  909000    1.2229842   -3.0898335   -3.0898335   -1.2553609   0.35246005   -3.0898335    1.8344725      1024000 
  910000    1.2232938   -3.0910717   -3.0910717   -1.2561346   0.35143158   -3.0910717     1.834937      1024000 
  911000    1.2229686    -3.090324    -3.090324   -1.2558747   0.35090736    -3.090324    1.8344492      1024000 
  912000    1.2220125   -3.0881068   -3.0881068   -1.2550917   0.35093276   -3.0881068    1.8330151      1024000 
  913000    1.2230764   -3.0894649   -3.0894649    -1.254854   0.34727095   -3.0894649    1.8346109      1024000 
  914000    1.2231884   -3.0894826   -3.0894826   -1.2547038   0.34585189   -3.0894826    1.8347788      1024000 
  915000    1.2226477   -3.0873363   -3.0873363   -1.2533685   0.35297757   -3.0873363    1.8339678      1024000 
  916000     1.221755   -3.0849203   -3.0849203   -1.2522915    0.3537035   -3.0849203    1.8326287      1024000 
  917000    1.2238907   -3.0878705   -3.0878705   -1.2520382   0.35177972   -3.0878705    1.8358323      1024000 
  918000    1.2251759   -3.0884615   -3.0884615   -1.2507014   0.34773018   -3.0884615    1.8377601      1024000 
  919000    1.2237206   -3.0861446   -3.0861446   -1.2505675   0.35127299   -3.0861446    1.8355771      1024000 
  920000     1.224105    -3.086669    -3.086669   -1.2505152   0.34440312    -3.086669    1.8361538      1024000 
  921000    1.2241499    -3.084765    -3.084765   -1.2485439   0.35232183    -3.084765    1.8362211      1024000 
  922000    1.2223282   -3.0832264   -3.0832264   -1.2497378     0.355196   -3.0832264    1.8334886      1024000 
  923000    1.2228924   -3.0838658   -3.0838658    -1.249531   0.34967131   -3.0838658    1.8343348      1024000 
  924000    1.2250124   -3.0860727   -3.0860727   -1.2485578   0.34627345   -3.0860727    1.8375149      1024000 
  925000     1.225557   -3.0869087   -3.0869087   -1.2485769   0.34572214   -3.0869087    1.8383317      1024000 
  926000    1.2244066   -3.0850052   -3.0850052    -1.248399   0.35011737   -3.0850052    1.8366062      1024000 
  927000    1.2238512   -3.0840564   -3.0840564   -1.2482833   0.35109734   -3.0840564     1.835773      1024000 
  928000    1.2251495   -3.0846369   -3.0846369   -1.2469164   0.35029576   -3.0846369    1.8377205      1024000 
  929000    1.2242633   -3.0834502   -3.0834502    -1.247059   0.34869906   -3.0834502    1.8363912      1024000 
  930000    1.2232105   -3.0805534   -3.0805534   -1.2457413   0.35445723   -3.0805534     1.834812      1024000 
  931000    1.2243366   -3.0820624   -3.0820624   -1.2455612   0.35422533   -3.0820624    1.8365011      1024000 
  932000    1.2249359    -3.082454    -3.082454   -1.2450539   0.35175315    -3.082454    1.8374001      1024000 
  933000    1.2253011   -3.0809429   -3.0809429   -1.2429949   0.35030588   -3.0809429    1.8379479      1024000 
  934000    1.2246746   -3.0793574   -3.0793574   -1.2423493   0.35632286   -3.0793574    1.8370082      1024000 
  935000    1.2254126   -3.0806949   -3.0806949   -1.2425796   0.35260158   -3.0806949    1.8381152      1024000 
  936000    1.2255411   -3.0809168   -3.0809168   -1.2426088   0.35405244   -3.0809168     1.838308      1024000 
  937000    1.2254497   -3.0797057   -3.0797057   -1.2415348   0.35439835   -3.0797057    1.8381709      1024000 
  938000    1.2259345   -3.0807507   -3.0807507   -1.2418527   0.35226269   -3.0807507    1.8388981      1024000 
  939000    1.2263834   -3.0811725   -3.0811725   -1.2416011   0.35475147   -3.0811725    1.8395714      1024000 
  940000    1.2265691   -3.0806034   -3.0806034   -1.2407534   0.35212138   -3.0806034    1.8398499      1024000 
  941000    1.2264816   -3.0815167   -3.0815167   -1.2417979   0.35204521   -3.0815167    1.8397187      1024000 
  942000     1.225459   -3.0796086   -3.0796086   -1.2414238   0.34825792   -3.0796086    1.8381848      1024000 
  943000    1.2262686   -3.0805968   -3.0805968   -1.2411977   0.35046987   -3.0805968    1.8393991      1024000 
  944000    1.2272757    -3.080714    -3.080714   -1.2398042   0.35095783    -3.080714    1.8409098      1024000 
  945000    1.2279358   -3.0801361   -3.0801361   -1.2382361   0.35221065   -3.0801361       1.8419      1024000 
  946000    1.2274501   -3.0780513   -3.0780513   -1.2368798    0.3563791   -3.0780513    1.8411714      1024000 
  947000    1.2263469   -3.0765927   -3.0765927   -1.2370761   0.35184782   -3.0765927    1.8395166      1024000 
  948000    1.2274626    -3.078275    -3.078275   -1.2370848   0.35728145    -3.078275    1.8411901      1024000 
  949000    1.2287049   -3.0788824   -3.0788824   -1.2358287   0.35629736   -3.0788824    1.8430537      1024000 
  950000    1.2270939   -3.0779984   -3.0779984   -1.2373613    0.3558497   -3.0779984    1.8406372      1024000 
  951000    1.2268493   -3.0756766   -3.0756766   -1.2354064   0.35294046   -3.0756766    1.8402703      1024000 
  952000    1.2287011    -3.076164    -3.076164    -1.233116   0.35600086    -3.076164    1.8430479      1024000 
  953000    1.2288397   -3.0757768   -3.0757768    -1.232521   0.35237807   -3.0757768    1.8432558      1024000 
  954000    1.2297047   -3.0760798   -3.0760798   -1.2315265   0.35753801   -3.0760798    1.8445533      1024000 
  955000    1.2294477   -3.0749751   -3.0749751   -1.2308073   0.35315109   -3.0749751    1.8441678      1024000 
  956000    1.2289848   -3.0749045   -3.0749045   -1.2314311    0.3574136   -3.0749045    1.8434734      1024000 
  957000    1.2293436   -3.0754123   -3.0754123   -1.2314006   0.35351558   -3.0754123    1.8440117      1024000 
  958000    1.2294979    -3.074738    -3.074738   -1.2304949   0.35753265    -3.074738    1.8442431      1024000 
  959000    1.2303509   -3.0754549   -3.0754549   -1.2299323   0.35846976   -3.0754549    1.8455227      1024000 
  960000    1.2307049   -3.0744508   -3.0744508   -1.2283972   0.36225139   -3.0744508    1.8460536      1024000 
  961000    1.2326242   -3.0766556   -3.0766556   -1.2277231   0.35758683   -3.0766556    1.8489325      1024000 
  962000    1.2317664   -3.0750193   -3.0750193   -1.2273735   0.35957003   -3.0750193    1.8476458      1024000 
  963000    1.2324953   -3.0756217   -3.0756217   -1.2268825   0.35961052   -3.0756217    1.8487392      1024000 
  964000    1.2321403   -3.0754555   -3.0754555   -1.2272488   0.36273168   -3.0754555    1.8482067      1024000 
  965000    1.2308721   -3.0729655   -3.0729655   -1.2266611   0.35949427   -3.0729655    1.8463045      1024000 
  966000    1.2319544   -3.0728769   -3.0728769   -1.2249491    0.3553283   -3.0728769    1.8479279      1024000 
  967000    1.2324725   -3.0743527   -3.0743527   -1.2256476   0.36131459   -3.0743527     1.848705      1024000 
  968000    1.2334944   -3.0738107   -3.0738107   -1.2235729   0.35794256   -3.0738107    1.8502378      1024000 
  969000    1.2316578   -3.0710751   -3.0710751   -1.2235921   0.36199092   -3.0710751     1.847483      1024000 
  970000    1.2328876   -3.0722737   -3.0722737   -1.2229461   0.36442098   -3.0722737    1.8493276      1024000 
  971000    1.2326232   -3.0716882   -3.0716882   -1.2227572   0.35835388   -3.0716882     1.848931      1024000 
  972000     1.233443   -3.0723244   -3.0723244   -1.2221636   0.36153412   -3.0723244    1.8501608      1024000 
  973000    1.2332737   -3.0721218   -3.0721218    -1.222215   0.35906465   -3.0721218    1.8499067      1024000 
  974000     1.232081   -3.0709527   -3.0709527    -1.222835   0.35684866   -3.0709527    1.8481177      1024000 
  975000     1.233011   -3.0712577   -3.0712577   -1.2217449   0.36237145   -3.0712577    1.8495128      1024000 
  976000    1.2321102   -3.0690859   -3.0690859   -1.2209244   0.36516653   -3.0690859    1.8481615      1024000 
  977000    1.2328794   -3.0713778   -3.0713778   -1.2220625   0.36280096   -3.0713778    1.8493153      1024000 
  978000    1.2317306    -3.070625    -3.070625   -1.2230328   0.35883423    -3.070625    1.8475922      1024000 
  979000    1.2313648   -3.0696965   -3.0696965   -1.2226531   0.35946977   -3.0696965    1.8470434      1024000 
  980000    1.2326506   -3.0694208   -3.0694208   -1.2204487   0.35933577   -3.0694208    1.8489721      1024000 
  981000    1.2309623   -3.0668668   -3.0668668   -1.2204271   0.35492385   -3.0668668    1.8464397      1024000 
  982000    1.2323317   -3.0681695   -3.0681695   -1.2196758   0.35876642   -3.0681695    1.8484937      1024000 
  983000    1.2317434   -3.0675853   -3.0675853    -1.219974   0.35817453   -3.0675853    1.8476113      1024000 
  984000    1.2315651    -3.066181    -3.066181   -1.2188371   0.35739125    -3.066181    1.8473439      1024000 
  985000    1.2297628   -3.0636965   -3.0636965    -1.219056   0.36406884   -3.0636965    1.8446404      1024000 
  986000     1.231703   -3.0667779   -3.0667779   -1.2192272   0.35562198   -3.0667779    1.8475507      1024000 
  987000    1.2305953   -3.0636234   -3.0636234   -1.2177342   0.35890295   -3.0636234    1.8458892      1024000 
  988000    1.2320443   -3.0650855   -3.0650855   -1.2170228   0.35908418   -3.0650855    1.8480627      1024000 
  989000    1.2328697   -3.0647545   -3.0647545   -1.2154537   0.35702363   -3.0647545    1.8493008      1024000 
  990000    1.2339147   -3.0657745   -3.0657745   -1.2149063   0.35652582   -3.0657745    1.8508682      1024000 
  991000    1.2330512   -3.0634508   -3.0634508   -1.2138777   0.35667198   -3.0634508    1.8495731      1024000 
  992000    1.2328363   -3.0621495   -3.0621495   -1.2128988   0.35681888   -3.0621495    1.8492507      1024000 
  993000    1.2325217   -3.0624231   -3.0624231   -1.2136444   0.35700265   -3.0624231    1.8487787      1024000 
  994000    1.2344062   -3.0636322   -3.0636322   -1.2120267   0.35281199   -3.0636322    1.8516055      1024000 
  995000    1.2323882   -3.0611603   -3.0611603   -1.2125818   0.35718439   -3.0611603    1.8485785      1024000 
  996000    1.2338333   -3.0630297   -3.0630297   -1.2122835   0.35471521   -3.0630297    1.8507461      1024000 
  997000    1.2329047   -3.0612173   -3.0612173    -1.211864   0.35896168   -3.0612173    1.8493533      1024000 
  998000    1.2326154   -3.0605754   -3.0605754   -1.2116561   0.36432817   -3.0605754    1.8489193      1024000 
  999000    1.2338896    -3.061206    -3.061206   -1.2103753   0.35983888    -3.061206    1.8508307      1024000 
 1000000    1.2337267   -3.0608463   -3.0608463   -1.2102599   0.35785294   -3.0608463    1.8505863      1024000 
Loop time of 12990.8 on 32 procs for 1000000 steps with 492800 atoms

Performance: 16627.100 tau/day, 76.977 timesteps/s
98.4% CPU use with 32 MPI tasks x 1 OpenMP threads

MPI task timing breakdown:
Section |  min time  |  avg time  |  max time  |%varavg|  %CPU | %total
-----------------------------------------------------------------------
Pair    | 2917.4     | 5646.4     | 6730.7     |1586.7 |  98.5 | 43.46
Bond    | 0.61285    | 0.67093    | 0.72079    |   3.1 | 100.0 |  0.01
Neigh   | 1262.2     | 1821       | 2036.8     | 557.0 |  99.6 | 14.02
Comm    | 3604.4     | 4779.9     | 7508.1     |1747.7 |  97.8 | 36.79
Output  | 102.58     | 102.81     | 102.82     |   0.4 |  96.7 |  0.79
Modify  | 283.86     | 353.31     | 708.79     | 679.4 |  98.2 |  2.72
Other   |            | 286.8      |            |       |       |  2.21

Nlocal:        15400.0 ave       15659 max       15167 min
Histogram: 1 1 1 10 5 9 1 3 0 1
Nghost:        10545.1 ave       12521 max        6750 min
Histogram: 4 0 0 4 3 1 1 3 4 12
Neighs:       406888.0 ave      491479 max      209220 min
Histogram: 4 0 0 2 2 0 4 2 8 10

Total # of neighbors = 13020429
Ave neighs/atom = 26.421325
Ave special neighs/atom = 0.0000000
Neighbor list builds = 80916
Dangerous builds = 2460
Total wall time: 3:36:31
