LAMMPS (29 Oct 2020)
  using 1 OpenMP thread(s) per MPI task
# Simple rigid body system
# needed variables:

#variable	startTemp equal 0.5
#variable 	temp 	  equal 0.8

units		lj
atom_style	full
dimension 	3
boundary	p p f
pair_style	lj/cut/opt 2.5


variable 	sigma		equal 1.0
variable 	epsilon 	equal 1.0

region		box block 0 100 0 100 0 200
create_box 	3 box
Created orthogonal box = (0.0000000 0.0000000 0.0000000) to (100.00000 100.00000 200.00000)
  4 by 5 by 12 MPI processor grid
lattice 	sc 1.0
Lattice spacing in x,y,z = 1.0000000 1.0000000 1.0000000

region		create block EDGE EDGE EDGE EDGE 2 102
create_atoms 	1 region create
Created 1010000 atoms
  create_atoms CPU = 0.097 seconds

mass		1 1.0
mass		2 1.0
mass		3 1.0

group		solvent type 1
1010000 atoms in group solvent

velocity 	solvent create ${startTemp} 563435 loop geom
velocity 	solvent create 0.8 563435 loop geom


neighbor 	0.4 bin

pair_coeff	1 1 1.0 1.0
pair_coeff	2 2 0.0 0.0
pair_coeff	3 3 0.0 0.0
pair_coeff	2 3 0.0 0.0
pair_coeff	1 2*3 0.0 0.0

pair_modify 	shift yes


balance 	1.05 shift z 10 1.05
Balancing ...
Neighbor list info ...
  update every 1 steps, delay 10 steps, check yes
  max neighbors/atom: 2000, page size: 100000
  master list distance cutoff = 2.9
  ghost atom cutoff = 2.9
  binsize = 1.45, bins = 69 69 138
  1 neighbor lists, perpetual/occasional/extra = 1 0 0
  (1) pair lj/cut/opt, perpetual
      attributes: half, newton on
      pair build: half/bin/newton
      stencil: half/bin/3d/newton
      bin: standard
 rebalancing time: 0.673 seconds
  iteration count = 5
  initial/final maximal load/proc = 8925.0000 5775.0000
  initial/final imbalance factor  = 2.1207921 1.3722772
  x cuts: 0.0000000 0.25 0.5 0.75 1.0000000
  y cuts: 0.0000000 0.2 0.4 0.6 0.8 1.0000000
  z cuts: 0.0000000 0.049479167 0.091145833 0.13020833 0.171875 0.22135417 0.2578125 0.30208333 0.34375 0.37239583 0.4296875 0.46354167 1.0000000


####################### WALLS ###########################


variable       epsilonWall equal 2*${epsilon}
variable       epsilonWall equal 2*1

variable       cutoffTop   equal   0.7147*${sigma}
variable       cutoffTop   equal   0.7147*1

variable       cutoffLow   equal   3*${sigma}
variable       cutoffLow   equal   3*1


fix            topWall all wall/lj93 zhi EDGE                ${epsilonWall} ${sigma} ${cutoffTop} units box
fix            topWall all wall/lj93 zhi EDGE                2 ${sigma} ${cutoffTop} units box
fix            topWall all wall/lj93 zhi EDGE                2 1 ${cutoffTop} units box
fix            topWall all wall/lj93 zhi EDGE                2 1 0.7147 units box

fix            lowWall all wall/lj93 zlo EDGE                ${epsilonWall} ${sigma} ${cutoffLow} units box
fix            lowWall all wall/lj93 zlo EDGE                2 ${sigma} ${cutoffLow} units box
fix            lowWall all wall/lj93 zlo EDGE                2 1 ${cutoffLow} units box
fix            lowWall all wall/lj93 zlo EDGE                2 1 3 units box


###################### COMPUTES ##########################

compute        bin1 solvent chunk/atom bin/1d z upper 1.0


######################	FIXES ############################


fix 		peclet solvent ave/chunk 1000 1 1000 bin1 density/number norm 		 none ave one file density.profile

fix 		 temp solvent ave/chunk 1000 1 1000 bin1 temp norm 		 none ave one file temp.profile

fix 		2 solvent nve


## Thermostat


region		regthermo block EDGE EDGE EDGE EDGE 0 20

group 		thermo dynamic solvent region regthermo every 1000
dynamic group thermo defined

fix 		3 thermo langevin ${startTemp} ${temp} 10 156453
fix 		3 thermo langevin 0.8 ${temp} 10 156453
fix 		3 thermo langevin 0.8 .6 10 156453



#### Load balancing


fix 		bal all balance 1000 1.05 shift z 10 1.05


############### Diagnostics and computes ###################
#compute 	com cube	  rigid/local	1 mol x y z
#compute 	quat cube	  rigid/local	1 mol quatw quati quatj quatk

thermo 		1000
thermo_style 	custom step temp epair evdwl etotal press pe ke atoms

dump		1 all custom 100000 dump.lammpstrj id mol type x y z
dump 		2 all image 10000 image.*.png type type
dump 		3 all movie 1000 movie.avi type type

#dump 		com cube local 1000 dump.*.xyz c_com[*]
#dump		quat cube      local 1000 dump.*.quat c_quat[*]


restart 	1000000 restart.dat
timestep 	0.005
timer 		full
New timer settings: style=full  mode=nosync  timeout=off

run		3000000
Per MPI rank memory allocation (min/avg/max) = 9.581 | 9.852 | 10.35 Mbytes
Step Temp E_pair E_vdwl TotEng Press PotEng KinEng Atoms 
       0          0.8   -3.3050748   -3.3050748    -2.105076    8.8982699   -3.3050748    1.1999988  1010000 
    1000    1.5970832   -4.6786143   -4.6786143   -2.2829918      3.95609   -4.6786143    2.3956224  1010000 
    2000    1.5376253    -4.742586    -4.742586   -2.4361504    2.0498425    -4.742586    2.3064356  1010000 
    3000    1.4751903   -4.6977877   -4.6977877   -2.4850044   0.51310847   -4.6977877    2.2127832  1010000 
    4000    1.3542283   -4.4918916   -4.4918916   -2.4605511 -0.075919335   -4.4918916    2.0313405  1010000 
    5000    1.3051015   -4.3814192   -4.3814192   -2.4237689 -0.034617102   -4.3814192    1.9576503  1010000 
    6000    1.3184669   -4.3772954   -4.3772954    -2.399597   0.09652934   -4.3772954    1.9776983  1010000 
    7000    1.3207727    -4.368187    -4.368187     -2.38703   0.15411697    -4.368187    1.9811571  1010000 
    8000    1.3255092   -4.3672118   -4.3672118     -2.37895    0.1981353   -4.3672118    1.9882618  1010000 
    9000    1.3322603   -4.3724743   -4.3724743   -2.3740859    0.2492515   -4.3724743    1.9983885  1010000 
   10000    1.3351885   -4.3743064   -4.3743064   -2.3715257   0.28110093   -4.3743064    2.0027807  1010000 
   11000    1.3316166   -4.3675801   -4.3675801   -2.3701572   0.29270575   -4.3675801    1.9974229  1010000 
   12000     1.321911   -4.3541203   -4.3541203   -2.3712558    1.0802369   -4.3541203    1.9828645  1010000 
   13000    1.3151706   -4.3435082   -4.3435082   -2.3707544    2.3297033   -4.3435082    1.9727539  1010000 
   14000    1.3269062   -4.3607123   -4.3607123   -2.3703549    2.2542391   -4.3607123    1.9903574  1010000 
   15000    1.3108479   -4.3345178   -4.3345178   -2.3682478      1.40538   -4.3345178      1.96627  1010000 
   16000    1.2446553   -4.2345901   -4.2345901    -2.367609   0.71944093   -4.2345901    1.8669811  1010000 
   17000    1.1518689   -4.0961467   -4.0961467    -2.368345   0.31121296   -4.0961467    1.7278017  1010000 
   18000    1.0727951    -3.977708    -3.977708    -2.368517   0.10415498    -3.977708    1.6091911  1010000 
   19000    1.0342607   -3.9204299   -3.9204299   -2.3690405  0.055240797   -3.9204299    1.5513894  1010000 
   20000    1.0183865   -3.8972996   -3.8972996   -2.3697214  0.055084488   -3.8972996    1.5275782  1010000 
   21000    1.0127931   -3.8903983   -3.8903983   -2.3712102  0.069601445   -3.8903983    1.5191881  1010000 
   22000    1.0147566   -3.8957806   -3.8957806   -2.3736472    0.1132871   -3.8957806    1.5221334  1010000 
   23000    1.0203872   -3.9082345   -3.9082345   -2.3776552   0.18436323   -3.9082345    1.5305792  1010000 
   24000    1.0260891   -3.9221231   -3.9221231    -2.382991   0.24359899   -3.9221231    1.5391321  1010000 
   25000    1.0248361   -3.9277034   -3.9277034   -2.3904507    0.2421998   -3.9277034    1.5372527  1010000 
   26000    1.0114248   -3.9163362   -3.9163362   -2.3992006   0.18288877   -3.9163362    1.5171356  1010000 
   27000   0.98951947   -3.8956561   -3.8956561   -2.4113784   0.10444471   -3.8956561    1.4842777  1010000 
   28000   0.97204384   -3.8852358   -3.8852358   -2.4271715  0.050644916   -3.8852358    1.4580643  1010000 
   29000   0.96147245   -3.8906262   -3.8906262   -2.4484189  0.044814296   -3.8906262    1.4422073  1010000 
   30000   0.95869488   -3.9104247   -3.9104247   -2.4723838  0.073866323   -3.9104247    1.4380409  1010000 
   31000   0.96121273   -3.9381023   -3.9381023   -2.4962847   0.10740045   -3.9381023    1.4418177  1010000 
   32000   0.97041511   -3.9713433   -3.9713433   -2.5157221   0.13500554   -3.9713433    1.4556212  1010000 
   33000   0.98159456   -4.0034042   -4.0034042   -2.5310139   0.17846862   -4.0034042    1.4723904  1010000 
   34000   0.99153756   -4.0295718   -4.0295718    -2.542267   0.21489937   -4.0295718    1.4873049  1010000 
   35000    1.0005268   -4.0528819   -4.0528819   -2.5520931   0.25356487   -4.0528819    1.5007887  1010000 
   36000    1.0132527   -4.0788814   -4.0788814   -2.5590038   0.32794166   -4.0788814    1.5198776  1010000 
   37000    1.0293175   -4.1102384   -4.1102384   -2.5662637   0.40731754   -4.1102384    1.5439747  1010000 
   38000    1.0420124   -4.1420619   -4.1420619   -2.5790448   0.48443503   -4.1420619    1.5630171  1010000 
   39000    1.0407495    -4.162885    -4.162885   -2.6017623   0.53547407    -4.162885    1.5611227  1010000 
   40000    1.0290735   -4.1716774   -4.1716774   -2.6280686   0.53651939   -4.1716774    1.5436088  1010000 
   41000    1.0193493   -4.1808317   -4.1808317   -2.6518092    0.5071707   -4.1808317    1.5290225  1010000 
   42000    1.0126274   -4.1879709   -4.1879709   -2.6690313   0.49792156   -4.1879709    1.5189396  1010000 
   43000    1.0089366   -4.1954523   -4.1954523   -2.6820489   0.48737894   -4.1954523    1.5134034  1010000 
   44000    1.0022528   -4.1942261   -4.1942261   -2.6908484   0.46357037   -4.1942261    1.5033777  1010000 
   45000   0.98510795   -4.1733002   -4.1733002   -2.6956397   0.38483143   -4.1733002    1.4776605  1010000 
   46000   0.96312432   -4.1403984   -4.1403984   -2.6957134   0.27663984   -4.1403984     1.444685  1010000 
   47000   0.94062018   -4.1058872   -4.1058872   -2.6949583   0.17468967   -4.1058872    1.4109289  1010000 
   48000   0.92016249   -4.0732632   -4.0732632   -2.6930209   0.10349136   -4.0732632    1.3802424  1010000 
   49000   0.90265756   -4.0446203   -4.0446203   -2.6906353  0.052342746   -4.0446203     1.353985  1010000 
   50000   0.88921277   -4.0223696   -4.0223696   -2.6885518  0.012234199   -4.0223696    1.3338178  1010000 
   51000   0.87695694    -4.000242    -4.000242   -2.6848079 -0.011137366    -4.000242    1.3154341  1010000 
   52000   0.87023987    -3.985576    -3.985576   -2.6802175 -0.031008077    -3.985576    1.3053585  1010000 
   53000   0.86927672   -3.9770323   -3.9770323   -2.6731185 -0.034636894   -3.9770323    1.3039138  1010000 
   54000   0.86961785   -3.9724765   -3.9724765    -2.668051 -0.032460018   -3.9724765    1.3044255  1010000 
   55000   0.87292091   -3.9728885   -3.9728885   -2.6635085 -0.021124296   -3.9728885    1.3093801  1010000 
   56000   0.87776537   -3.9765907   -3.9765907   -2.6599439 -0.0016183181   -3.9765907    1.3166467  1010000 
   57000   0.88149018    -3.981259    -3.981259    -2.659025 0.0099630419    -3.981259     1.322234  1010000 
   58000   0.88451887   -3.9872991   -3.9872991   -2.6605221  0.020076655   -3.9872991     1.326777  1010000 
   59000   0.88609436    -3.991066    -3.991066   -2.6619258  0.027400136    -3.991066    1.3291402  1010000 
   60000   0.88456917   -3.9921703   -3.9921703   -2.6653178  0.026347987   -3.9921703    1.3268524  1010000 
   61000   0.88418144   -3.9945666   -3.9945666   -2.6682958  0.022205834   -3.9945666    1.3262708  1010000 
   62000   0.88295664   -3.9958331   -3.9958331   -2.6713994  0.017334093   -3.9958331    1.3244337  1010000 
   63000   0.88242066   -3.9969221   -3.9969221   -2.6732924  0.021107743   -3.9969221    1.3236297  1010000 
   64000   0.88335529   -4.0002561   -4.0002561   -2.6752245  0.021571928   -4.0002561    1.3250316  1010000 
   65000   0.88257651   -4.0004186   -4.0004186   -2.6765552  0.028782899   -4.0004186    1.3238635  1010000 
   66000   0.88346938   -4.0026223   -4.0026223   -2.6774195  0.034014292   -4.0026223    1.3252028  1010000 
   67000   0.88392941   -4.0046661   -4.0046661   -2.6787733  0.033038224   -4.0046661    1.3258928  1010000 
   68000   0.88263012   -4.0048596   -4.0048596   -2.6809157   0.03223836   -4.0048596    1.3239439  1010000 
   69000   0.88221652   -4.0047683   -4.0047683   -2.6814448  0.027365726   -4.0047683    1.3233235  1010000 
   70000   0.88050306   -4.0043556   -4.0043556   -2.6836023  0.026064058   -4.0043556    1.3207533  1010000 
   71000    0.8792329   -4.0045227   -4.0045227   -2.6856747  0.026597718   -4.0045227     1.318848  1010000 
   72000    0.8794061   -4.0060573   -4.0060573   -2.6869495  0.026617243   -4.0060573    1.3191078  1010000 
   73000   0.88042733     -4.00839     -4.00839   -2.6877503  0.031848142     -4.00839    1.3206397  1010000 
   74000   0.87959631   -4.0077466   -4.0077466   -2.6883534  0.036058428   -4.0077466    1.3193932  1010000 
   75000   0.88066492   -4.0099003   -4.0099003   -2.6889043  0.033802733   -4.0099003    1.3209961  1010000 
   76000   0.87941353   -4.0096242   -4.0096242   -2.6905052  0.034751555   -4.0096242     1.319119  1010000 
   77000   0.87841595   -4.0095819   -4.0095819   -2.6919592  0.028921596   -4.0095819    1.3176226  1010000 
   78000   0.87815718   -4.0111227   -4.0111227   -2.6938883    0.0334423   -4.0111227    1.3172345  1010000 
   79000   0.87790364   -4.0130728   -4.0130728   -2.6962186  0.032427688   -4.0130728    1.3168542  1010000 
   80000   0.88113165   -4.0193053   -4.0193053   -2.6976091  0.043992542   -4.0193053    1.3216962  1010000 
   81000    0.8871526   -4.0291461   -4.0291461   -2.6984185   0.07633138   -4.0291461    1.3307276  1010000 
   82000   0.89865811   -4.0473749   -4.0473749   -2.6993891    0.1321562   -4.0473749    1.3479858  1010000 
   83000   0.91006626   -4.0656369   -4.0656369   -2.7005389   0.19653173   -4.0656369     1.365098  1010000 
   84000   0.91847594     -4.07864     -4.07864   -2.7009274   0.23620403     -4.07864    1.3777125  1010000 
   85000   0.91777374   -4.0790026   -4.0790026   -2.7023434   0.22884938   -4.0790026    1.3766592  1010000 
   86000   0.90984519   -4.0676276   -4.0676276   -2.7028611   0.18422664   -4.0676276    1.3647664  1010000 
   87000   0.89550228   -4.0473009   -4.0473009   -2.7040488   0.12376348   -4.0473009    1.3432521  1010000 
   88000   0.88359287   -4.0300099   -4.0300099   -2.7046219   0.07119122   -4.0300099     1.325388  1010000 
   89000   0.87447698   -4.0175152   -4.0175152    -2.705801  0.033386481   -4.0175152    1.3117142  1010000 
   90000   0.86961368   -4.0115154   -4.0115154   -2.7070961  0.017067977   -4.0115154    1.3044192  1010000 
   91000   0.86620945    -4.007801    -4.007801   -2.7084881  0.014692978    -4.007801    1.2993129  1010000 
   92000   0.86692247    -4.009334    -4.009334   -2.7089516  0.016239029    -4.009334    1.3003824  1010000 
   93000   0.86935849   -4.0138302   -4.0138302   -2.7097938   0.02680878   -4.0138302    1.3040364  1010000 
   94000   0.87315304   -4.0210285   -4.0210285   -2.7113003  0.043036043   -4.0210285    1.3097283  1010000 
   95000   0.87492483   -4.0237628   -4.0237628   -2.7113769  0.054242589   -4.0237628     1.312386  1010000 
   96000   0.87580553   -4.0267012   -4.0267012   -2.7129942  0.046596719   -4.0267012     1.313707  1010000 
   97000   0.87406108   -4.0253523   -4.0253523    -2.714262  0.046179067   -4.0253523    1.3110903  1010000 
   98000   0.87090832   -4.0218826   -4.0218826   -2.7155214  0.035526119   -4.0218826    1.3063612  1010000 
   99000   0.86770827   -4.0186132   -4.0186132   -2.7170521  0.022378051   -4.0186132    1.3015611  1010000 
  100000   0.86552189   -4.0164907   -4.0164907   -2.7182092  0.016776785   -4.0164907    1.2982815  1010000 
  101000   0.86586732   -4.0181472   -4.0181472   -2.7193475  0.018366587   -4.0181472    1.2987997  1010000 
  102000   0.86592353   -4.0207123   -4.0207123   -2.7218283   0.01952974   -4.0207123     1.298884  1010000 
  103000   0.86728245    -4.024068    -4.024068   -2.7231456  0.023337936    -4.024068    1.3009224  1010000 
  104000    0.8695525   -4.0285291   -4.0285291   -2.7242016  0.032185089   -4.0285291    1.3043275  1010000 
  105000   0.87056988    -4.029963    -4.029963   -2.7241095  0.036845877    -4.029963    1.3058535  1010000 
  106000   0.87070802   -4.0312055   -4.0312055   -2.7251447  0.039218342   -4.0312055    1.3060607  1010000 
  107000   0.87084974   -4.0323263   -4.0323263    -2.726053  0.036895778   -4.0323263    1.3062733  1010000 
  108000   0.86834311    -4.029823    -4.029823   -2.7273096  0.034240732    -4.029823    1.3025134  1010000 
  109000   0.86659377    -4.028852    -4.028852   -2.7289626  0.026007147    -4.028852    1.2998894  1010000 
  110000    0.8657318   -4.0288757   -4.0288757   -2.7302792  0.023544066   -4.0288757    1.2985964  1010000 
  111000   0.86491565   -4.0280072   -4.0280072    -2.730635  0.025256725   -4.0280072    1.2973722  1010000 
  112000   0.86396252   -4.0282125   -4.0282125     -2.73227  0.020832349   -4.0282125    1.2959425  1010000 
  113000   0.86465293   -4.0301536   -4.0301536   -2.7331755  0.022544671   -4.0301536    1.2969781  1010000 
  114000    0.8660785   -4.0327684   -4.0327684   -2.7336519  0.027872332   -4.0327684    1.2991165  1010000 
  115000   0.86698656   -4.0352127   -4.0352127   -2.7347341  0.033349713   -4.0352127    1.3004785  1010000 
  116000   0.86879252   -4.0383785   -4.0383785    -2.735191  0.038276104   -4.0383785    1.3031875  1010000 
  117000   0.86865284   -4.0395071   -4.0395071   -2.7365292  0.031435696   -4.0395071     1.302978  1010000 
  118000   0.86781831   -4.0389953   -4.0389953   -2.7372691  0.034892593   -4.0389953    1.3017262  1010000 
  119000   0.86703679   -4.0391199   -4.0391199    -2.738566  0.027358183   -4.0391199    1.3005539  1010000 
  120000   0.86494385   -4.0367251   -4.0367251   -2.7393106  0.029340932   -4.0367251    1.2974145  1010000 
  121000   0.86466541   -4.0375524   -4.0375524   -2.7405556  0.024343891   -4.0375524    1.2969968  1010000 
  122000   0.86324027   -4.0370024   -4.0370024   -2.7421433  0.023032202   -4.0370024    1.2948591  1010000 
  123000   0.86336444   -4.0381252   -4.0381252   -2.7430798  0.023806365   -4.0381252    1.2950454  1010000 
  124000   0.86430542   -4.0408283   -4.0408283   -2.7443714  0.023290216   -4.0408283    1.2964568  1010000 
  125000   0.86455031   -4.0420348   -4.0420348   -2.7452106  0.031226577   -4.0420348    1.2968242  1010000 
  126000   0.86523456    -4.043897    -4.043897   -2.7460465  0.033400893    -4.043897    1.2978506  1010000 
  127000    0.8660915   -4.0461254   -4.0461254   -2.7469895  0.032564064   -4.0461254     1.299136  1010000 
  128000   0.86647693   -4.0476238   -4.0476238   -2.7479097  0.033527237   -4.0476238    1.2997141  1010000 
  129000   0.86598667   -4.0484064   -4.0484064   -2.7494277  0.036853377   -4.0484064    1.2989787  1010000 
  130000   0.86463636   -4.0477959   -4.0477959   -2.7508426  0.028767867   -4.0477959    1.2969533  1010000 
  131000   0.86291891   -4.0456036   -4.0456036   -2.7512265  0.022731406   -4.0456036    1.2943771  1010000 
  132000   0.86255728   -4.0465157   -4.0465157    -2.752681  0.023847868   -4.0465157    1.2938346  1010000 
  133000   0.86212828    -4.046401    -4.046401   -2.7532099  0.025491437    -4.046401    1.2931911  1010000 
  134000   0.86307618   -4.0493396   -4.0493396   -2.7547266  0.021815773   -4.0493396     1.294613  1010000 
  135000   0.86187737   -4.0492808   -4.0492808   -2.7564661  0.024403206   -4.0492808    1.2928148  1010000 
  136000   0.86443004   -4.0532694   -4.0532694   -2.7566256  0.026185786   -4.0532694    1.2966438  1010000 
  137000   0.86452095    -4.054081    -4.054081   -2.7573008   0.03057361    -4.054081    1.2967801  1010000 
  138000   0.86444005   -4.0552925   -4.0552925   -2.7586337  0.032022496   -4.0552925    1.2966588  1010000 
  139000   0.86400728    -4.055533    -4.055533   -2.7595233  0.032642376    -4.055533    1.2960096  1010000 
  140000   0.86357524   -4.0557007   -4.0557007   -2.7603392  0.028059229   -4.0557007    1.2953616  1010000 
  141000   0.86274693   -4.0556473   -4.0556473   -2.7615282  0.027332101   -4.0556473    1.2941191  1010000 
  142000   0.86249639   -4.0564172   -4.0564172   -2.7626739  0.022603286   -4.0564172    1.2937433  1010000 
  143000   0.86149553   -4.0562587   -4.0562587   -2.7640167  0.024755648   -4.0562587     1.292242  1010000 
  144000   0.86173669   -4.0572381   -4.0572381   -2.7646344  0.023802079   -4.0572381    1.2926038  1010000 
  145000   0.86281535   -4.0608338   -4.0608338   -2.7666121   0.02564821   -4.0608338    1.2942217  1010000 
  146000   0.86256515   -4.0610659   -4.0610659   -2.7672195  0.029123217   -4.0610659    1.2938464  1010000 
  147000   0.86268967   -4.0629641   -4.0629641   -2.7689309  0.028852443   -4.0629641    1.2940332  1010000 
  148000    0.8627351   -4.0643998   -4.0643998   -2.7702984  0.029204587   -4.0643998    1.2941014  1010000 
  149000   0.86292872   -4.0656734   -4.0656734   -2.7712816  0.026501675   -4.0656734    1.2943918  1010000 
  150000   0.86193372   -4.0642698   -4.0642698   -2.7713705  0.031015124   -4.0642698    1.2928993  1010000 
  151000   0.86171481   -4.0653742   -4.0653742   -2.7728033   0.03107469   -4.0653742    1.2925709  1010000 
  152000   0.86118016   -4.0657796   -4.0657796   -2.7740106  0.024696823   -4.0657796     1.291769  1010000 
  153000   0.86090532   -4.0658226   -4.0658226   -2.7744659  0.023989372   -4.0658226    1.2913567  1010000 
  154000   0.86129155   -4.0671417   -4.0671417   -2.7752057  0.020310256   -4.0671417     1.291936  1010000 
  155000   0.86051688   -4.0666699   -4.0666699   -2.7758958  0.028192075   -4.0666699     1.290774  1010000 
  156000   0.86112588   -4.0680769   -4.0680769   -2.7763894  0.028651675   -4.0680769    1.2916875  1010000 
  157000   0.86144125   -4.0692339   -4.0692339   -2.7770733  0.027016711   -4.0692339    1.2921606  1010000 
  158000   0.86007885   -4.0681322   -4.0681322   -2.7780152  0.028115408   -4.0681322     1.290117  1010000 
  159000   0.86072664   -4.0690977   -4.0690977    -2.778009  0.027361721   -4.0690977    1.2910887  1010000 
  160000   0.86195238   -4.0719218   -4.0719218   -2.7789945  0.021704272   -4.0719218    1.2929273  1010000 
  161000   0.86107689   -4.0726212   -4.0726212   -2.7810071  0.022891683   -4.0726212    1.2916141  1010000 
  162000   0.85935249   -4.0714426   -4.0714426   -2.7824151  0.028153908   -4.0714426    1.2890275  1010000 
  163000   0.85881241   -4.0719203   -4.0719203   -2.7837029  0.022046333   -4.0719203    1.2882173  1010000 
  164000   0.85950416   -4.0741971   -4.0741971   -2.7849421  0.022808448   -4.0741971     1.289255  1010000 
  165000   0.86008744   -4.0762704   -4.0762704   -2.7861405  0.026666558   -4.0762704    1.2901299  1010000 
  166000    0.8598331   -4.0780811   -4.0780811   -2.7883327   0.02153461   -4.0780811    1.2897484  1010000 
  167000   0.85969714   -4.0787107   -4.0787107   -2.7891663  0.026949061   -4.0787107    1.2895444  1010000 
  168000   0.86003007   -4.0804023   -4.0804023   -2.7903585  0.024168026   -4.0804023    1.2900438  1010000 
  169000   0.86079913   -4.0822992   -4.0822992   -2.7911018    0.0271133   -4.0822992    1.2911974  1010000 
  170000   0.86025328   -4.0832479   -4.0832479   -2.7928692  0.023811667   -4.0832479    1.2903786  1010000 
  171000   0.85875517   -4.0814967   -4.0814967   -2.7933652  0.023248245   -4.0814967    1.2881315  1010000 
  172000   0.85870679   -4.0815256   -4.0815256   -2.7934666  0.021696976   -4.0815256    1.2880589  1010000 
  173000   0.85870161   -4.0831491   -4.0831491    -2.795098  0.020351927   -4.0831491    1.2880511  1010000 
  174000   0.85781533   -4.0819498   -4.0819498    -2.795228  0.022606497   -4.0819498    1.2867217  1010000 
  175000   0.85747271   -4.0813153   -4.0813153   -2.7951075  0.022284394   -4.0813153    1.2862078  1010000 
  176000   0.85762447   -4.0831081   -4.0831081   -2.7966727  0.019219177   -4.0831081    1.2864354  1010000 
  177000   0.85777557   -4.0845737   -4.0845737   -2.7979117  0.021128629   -4.0845737    1.2866621  1010000 
  178000   0.85783945   -4.0861104   -4.0861104   -2.7993525  0.019558684   -4.0861104    1.2867579  1010000 
  179000   0.85688392   -4.0853532   -4.0853532   -2.8000286  0.022919856   -4.0853532    1.2853246  1010000 
  180000   0.85804426   -4.0883203   -4.0883203   -2.8012551  0.022061077   -4.0883203    1.2870651  1010000 
  181000   0.85758265   -4.0883073   -4.0883073   -2.8019346  0.023286097   -4.0883073    1.2863727  1010000 
  182000   0.85713019   -4.0883332   -4.0883332   -2.8026392  0.022716058   -4.0883332     1.285694  1010000 
  183000   0.85685801   -4.0885197   -4.0885197   -2.8032339  0.022379096   -4.0885197    1.2852857  1010000 
  184000   0.85558039   -4.0880773   -4.0880773   -2.8047079  0.025483816   -4.0880773    1.2833693  1010000 
  185000   0.85576675    -4.089732    -4.089732   -2.8060832  0.020033256    -4.089732    1.2836489  1010000 
  186000   0.85592098   -4.0903265   -4.0903265   -2.8064463  0.020756065   -4.0903265    1.2838802  1010000 
  187000   0.85593507   -4.0904086   -4.0904086   -2.8065073  0.025165101   -4.0904086    1.2839013  1010000 
  188000   0.85671518   -4.0929471   -4.0929471   -2.8078756   0.02572087   -4.0929471    1.2850715  1010000 
  189000   0.85648767   -4.0938863   -4.0938863   -2.8091561  0.017344037   -4.0938863    1.2847302  1010000 
  190000   0.85542354   -4.0922691   -4.0922691   -2.8091351   0.02643217   -4.0922691     1.283134  1010000 
  191000   0.85632806   -4.0946137   -4.0946137   -2.8101229  0.020467956   -4.0946137    1.2844908  1010000 
  192000   0.85514041   -4.0939125   -4.0939125   -2.8112032   0.02076638   -4.0939125    1.2827093  1010000 
  193000   0.85491521   -4.0941958   -4.0941958   -2.8118243  0.022599458   -4.0941958    1.2823715  1010000 
  194000   0.85491637   -4.0942484   -4.0942484   -2.8118751  0.019567314   -4.0942484    1.2823733  1010000 
  195000   0.85535065   -4.0960746   -4.0960746   -2.8130499  0.019181071   -4.0960746    1.2830247  1010000 
  196000   0.85483292   -4.0960236   -4.0960236   -2.8137755  0.017794615   -4.0960236    1.2822481  1010000 
  197000   0.85474288   -4.0973702   -4.0973702   -2.8152572  0.016154334   -4.0973702     1.282113  1010000 
  198000   0.85420796   -4.0972968   -4.0972968   -2.8159861  0.018369919   -4.0972968    1.2813107  1010000 
  199000   0.85482066   -4.0990819   -4.0990819   -2.8168522  0.020671538   -4.0990819    1.2822297  1010000 
  200000   0.85545316   -4.1011715   -4.1011715   -2.8179931  0.019143902   -4.1011715    1.2831785  1010000 
  201000   0.85463842    -4.101516    -4.101516   -2.8195596  0.020404276    -4.101516    1.2819564  1010000 
  202000   0.85391725   -4.1017124   -4.1017124   -2.8208378  0.019693983   -4.1017124    1.2808746  1010000 
  203000   0.85397984   -4.1028901   -4.1028901   -2.8219216  0.019219596   -4.1028901    1.2809685  1010000 
  204000   0.85467835   -4.1040783   -4.1040783   -2.8220621  0.018661826   -4.1040783    1.2820163  1010000 
  205000   0.85390851   -4.1035865   -4.1035865    -2.822725  0.018624366   -4.1035865    1.2808615  1010000 
  206000   0.85356844   -4.1044774   -4.1044774    -2.824126  0.017728785   -4.1044774    1.2803514  1010000 
  207000   0.85323736   -4.1045761   -4.1045761   -2.8247214  0.014829632   -4.1045761    1.2798548  1010000 
  208000   0.85272474   -4.1042621   -4.1042621   -2.8251763  0.016676636   -4.1042621    1.2790858  1010000 
  209000   0.85255135    -4.104258    -4.104258   -2.8254323  0.017342872    -4.104258    1.2788258  1010000 
  210000   0.85315708   -4.1056974   -4.1056974    -2.825963  0.017500473   -4.1056974    1.2797344  1010000 
  211000   0.85295416   -4.1060551   -4.1060551   -2.8266252  0.018374317   -4.1060551      1.27943  1010000 
  212000   0.85364198   -4.1074935   -4.1074935   -2.8270318  0.020008136   -4.1074935    1.2804617  1010000 
  213000   0.85281092   -4.1066286   -4.1066286   -2.8274135  0.019220349   -4.1066286    1.2792151  1010000 
  214000   0.85278764   -4.1076967   -4.1076967   -2.8285165  0.023024609   -4.1076967    1.2791802  1010000 
  215000   0.85255724   -4.1083325   -4.1083325   -2.8294979  0.017797353   -4.1083325    1.2788346  1010000 
  216000   0.85279719   -4.1091641   -4.1091641   -2.8299696  0.014900484   -4.1091641    1.2791945  1010000 
  217000   0.85315219   -4.1101754   -4.1101754   -2.8304484  0.019710677   -4.1101754     1.279727  1010000 
  218000   0.85213232   -4.1097767   -4.1097767   -2.8315795  0.015500648   -4.1097767    1.2781972  1010000 
  219000   0.85195651   -4.1106861   -4.1106861   -2.8327526  0.013904145   -4.1106861    1.2779335  1010000 
  220000   0.85248457   -4.1121133   -4.1121133   -2.8333877  0.017186582   -4.1121133    1.2787256  1010000 
  221000   0.85323701   -4.1141941   -4.1141941   -2.8343398  0.018091292   -4.1141941    1.2798542  1010000 
  222000   0.85191568   -4.1132909   -4.1132909   -2.8354186  0.021312827   -4.1132909    1.2778722  1010000 
  223000    0.8517336   -4.1145683   -4.1145683   -2.8369692  0.017374613   -4.1145683    1.2775991  1010000 
  224000    0.8513132   -4.1152138   -4.1152138   -2.8382453  0.016490896   -4.1152138    1.2769685  1010000 
  225000   0.85123427   -4.1158917   -4.1158917   -2.8390416  0.016915576   -4.1158917    1.2768501  1010000 
  226000   0.85043578   -4.1153981   -4.1153981   -2.8397457  0.015124711   -4.1153981    1.2756524  1010000 
  227000   0.85093505   -4.1160822   -4.1160822   -2.8396809  0.017530117   -4.1160822    1.2764013  1010000 
  228000   0.85044843    -4.116744    -4.116744   -2.8410726  0.013169451    -4.116744    1.2756714  1010000 
  229000   0.85095142   -4.1179794   -4.1179794   -2.8415535  0.014207434   -4.1179794    1.2764259  1010000 
  230000   0.85106308   -4.1185031   -4.1185031   -2.8419098  0.016126519   -4.1185031    1.2765934  1010000 
  231000   0.85026978   -4.1188036   -4.1188036   -2.8434002  0.014703202   -4.1188036    1.2754034  1010000 
  232000   0.85013245   -4.1190507   -4.1190507   -2.8438533  0.017620249   -4.1190507    1.2751974  1010000 
  233000   0.85032765   -4.1205373   -4.1205373   -2.8450471  0.018210544   -4.1205373    1.2754902  1010000 
  234000   0.85054065   -4.1214802   -4.1214802   -2.8456705  0.019784029   -4.1214802    1.2758097  1010000 
  235000    0.8493274   -4.1208256   -4.1208256   -2.8468357  0.018599855   -4.1208256    1.2739898  1010000 
  236000   0.85077539   -4.1231066   -4.1231066   -2.8469448  0.019725224   -4.1231066    1.2761618  1010000 
  237000   0.85095803    -4.123589    -4.123589   -2.8471532  0.018414285    -4.123589    1.2764358  1010000 
  238000   0.84985998    -4.122899    -4.122899   -2.8481103  0.016564001    -4.122899    1.2747887  1010000 
  239000   0.84926815   -4.1224164   -4.1224164   -2.8485154  0.015328904   -4.1224164     1.273901  1010000 
  240000   0.84954846   -4.1240626   -4.1240626   -2.8497412   0.01378904   -4.1240626    1.2743214  1010000 
  241000     0.849167   -4.1237844   -4.1237844   -2.8500352  0.017427965   -4.1237844    1.2737492  1010000 
  242000   0.84920224   -4.1243913   -4.1243913   -2.8505892  0.020471095   -4.1243913    1.2738021  1010000 
  243000   0.85033864   -4.1276021   -4.1276021   -2.8520954  0.017687935   -4.1276021    1.2755067  1010000 
  244000   0.84871589   -4.1256727   -4.1256727   -2.8526001  0.019764589   -4.1256727    1.2730726  1010000 
  245000   0.84944336    -4.127174    -4.127174   -2.8530103  0.015575731    -4.127174    1.2741638  1010000 
  246000   0.85006629    -4.128613    -4.128613   -2.8535148  0.019038701    -4.128613    1.2750982  1010000 
  247000   0.84905488   -4.1276488   -4.1276488   -2.8540678  0.021239706   -4.1276488    1.2735811  1010000 
  248000   0.84938752   -4.1289806   -4.1289806   -2.8549005  0.018590395   -4.1289806      1.27408  1010000 
  249000   0.85026802    -4.131233    -4.131233   -2.8558322  0.014382985    -4.131233    1.2754008  1010000 
  250000   0.84770337   -4.1285327   -4.1285327   -2.8569789  0.015720383   -4.1285327    1.2715538  1010000 
  251000    0.8490553   -4.1306634   -4.1306634   -2.8570817   0.01368631   -4.1306634    1.2735817  1010000 
  252000   0.84886603   -4.1314549   -4.1314549   -2.8581571  0.013241416   -4.1314549    1.2732978  1010000 
  253000   0.84792147   -4.1308517   -4.1308517   -2.8589707  0.019284643   -4.1308517    1.2718809  1010000 
  254000    0.8488884   -4.1332827   -4.1332827   -2.8599513  0.014874015   -4.1332827    1.2733313  1010000 
  255000   0.84852263   -4.1336181   -4.1336181   -2.8608354  0.013983396   -4.1336181    1.2727827  1010000 
  256000   0.84796328    -4.134084    -4.134084   -2.8621403  0.017669359    -4.134084    1.2719437  1010000 
  257000   0.84902694    -4.135962    -4.135962   -2.8624228  0.015374459    -4.135962    1.2735391  1010000 
  258000   0.84794078   -4.1348215   -4.1348215   -2.8629116  0.017700523   -4.1348215    1.2719099  1010000 
  259000   0.84790538    -4.135622    -4.135622   -2.8637652  0.015265398    -4.135622    1.2718568  1010000 
  260000   0.84698078   -4.1351368   -4.1351368   -2.8646669   0.01437673   -4.1351368    1.2704699  1010000 
  261000   0.84677811   -4.1359683   -4.1359683   -2.8658024  0.010719386   -4.1359683    1.2701659  1010000 
  262000    0.8468975   -4.1366785   -4.1366785   -2.8663335  0.020072305   -4.1366785     1.270345  1010000 
  263000   0.84719531   -4.1371906   -4.1371906   -2.8663989  0.018793185   -4.1371906    1.2707917  1010000 
  264000   0.84725075   -4.1384203   -4.1384203   -2.8675454   0.01582176   -4.1384203    1.2708749  1010000 
  265000   0.84673282   -4.1383631   -4.1383631   -2.8682651  0.018857781   -4.1383631     1.270098  1010000 
  266000   0.84762235   -4.1402904   -4.1402904   -2.8688581  0.016376535   -4.1402904    1.2714323  1010000 
  267000   0.84613738   -4.1395753   -4.1395753   -2.8703705  0.019479873   -4.1395753    1.2692048  1010000 
  268000   0.84742569   -4.1424395   -4.1424395   -2.8713022  0.011438699   -4.1424395    1.2711373  1010000 
  269000   0.84627425   -4.1409501   -4.1409501     -2.87154  0.014911284   -4.1409501    1.2694101  1010000 
  270000   0.84645671   -4.1415778   -4.1415778    -2.871894  0.018119955   -4.1415778    1.2696838  1010000 
  271000   0.84660961   -4.1425146   -4.1425146   -2.8726014  0.016804812   -4.1425146    1.2699132  1010000 
  272000   0.84725691   -4.1440658   -4.1440658   -2.8731817  0.016065178   -4.1440658    1.2708841  1010000 
  273000   0.84681313   -4.1447859   -4.1447859   -2.8745675  0.019628499   -4.1447859    1.2702184  1010000 
  274000   0.84589463   -4.1443876   -4.1443876   -2.8755469  0.018104177   -4.1443876    1.2688407  1010000 
  275000   0.84729841   -4.1471438   -4.1471438   -2.8761974  0.012953397   -4.1471438    1.2709464  1010000 
  276000   0.84640917   -4.1466206   -4.1466206   -2.8770081  0.020347595   -4.1466206    1.2696125  1010000 
  277000   0.84581114   -4.1463005   -4.1463005    -2.877585   0.01501309   -4.1463005    1.2687155  1010000 
  278000   0.84522892   -4.1461505   -4.1461505   -2.8783084  0.011900622   -4.1461505    1.2678421  1010000 
  279000   0.84467657   -4.1461966   -4.1461966    -2.879183  0.014740712   -4.1461966    1.2670136  1010000 
  280000   0.84590689   -4.1483695   -4.1483695   -2.8795104  0.015885513   -4.1483695    1.2688591  1010000 
  281000    0.8452383   -4.1483225   -4.1483225   -2.8804663  0.010333634   -4.1483225    1.2678562  1010000 
  282000   0.84618481   -4.1500602   -4.1500602   -2.8807843   0.01283008   -4.1500602     1.269276  1010000 
  283000    0.8456208   -4.1491163   -4.1491163   -2.8806863  0.019777968   -4.1491163    1.2684299  1010000 
  284000    0.8455692   -4.1502896   -4.1502896   -2.8819371  0.016926373   -4.1502896    1.2683525  1010000 
  285000   0.84598511   -4.1517283   -4.1517283   -2.8827518  0.013843919   -4.1517283    1.2689764  1010000 
  286000   0.84537608   -4.1519601   -4.1519601   -2.8838972  0.019615743   -4.1519601    1.2680629  1010000 
  287000   0.84499756   -4.1521645   -4.1521645   -2.8846694  0.016877957   -4.1521645    1.2674951  1010000 
  288000   0.84522965   -4.1535814   -4.1535814   -2.8857382  0.016528687   -4.1535814    1.2678432  1010000 
  289000   0.84519522   -4.1545594   -4.1545594   -2.8867679  0.013953775   -4.1545594    1.2677916  1010000 
  290000   0.84579933   -4.1556381   -4.1556381   -2.8869403  0.011178527   -4.1556381    1.2686977  1010000 
  291000   0.84503955   -4.1548604   -4.1548604   -2.8873023  0.016379454   -4.1548604    1.2675581  1010000 
  292000    0.8447392   -4.1563131   -4.1563131   -2.8892056  0.017075423   -4.1563131    1.2671075  1010000 
  293000   0.84561004   -4.1576678   -4.1576678    -2.889254  0.013923704   -4.1576678    1.2684138  1010000 
  294000   0.84432433   -4.1571598   -4.1571598   -2.8906745  0.018592918   -4.1571598    1.2664852  1010000 
  295000   0.84480877   -4.1580705   -4.1580705   -2.8908586  0.012594533   -4.1580705    1.2672119  1010000 
  296000   0.84579549   -4.1593173   -4.1593173   -2.8906253  0.018459743   -4.1593173     1.268692  1010000 
  297000   0.84467994   -4.1582758   -4.1582758   -2.8912572   0.01898415   -4.1582758    1.2670186  1010000 
  298000   0.84563718   -4.1604686   -4.1604686   -2.8920141  0.016534953   -4.1604686    1.2684545  1010000 
  299000   0.84479795   -4.1597438   -4.1597438   -2.8925481  0.016832985   -4.1597438    1.2671957  1010000 
  300000   0.84452241   -4.1600517   -4.1600517   -2.8932693   0.01684315   -4.1600517    1.2667824  1010000 
  301000   0.84406544   -4.1601148   -4.1601148   -2.8940179  0.015136585   -4.1601148    1.2660969  1010000 
  302000   0.84493722   -4.1622153   -4.1622153   -2.8948107  0.012648631   -4.1622153    1.2674046  1010000 
  303000   0.84495613    -4.162708    -4.162708    -2.895275  0.013099346    -4.162708    1.2674329  1010000 
  304000   0.84440512   -4.1628494   -4.1628494    -2.896243  0.018617387   -4.1628494    1.2666064  1010000 
  305000   0.84513085   -4.1648352   -4.1648352   -2.8971402   0.02058403   -4.1648352     1.267695  1010000 
  306000   0.84498816   -4.1656554   -4.1656554   -2.8981745  0.022574337   -4.1656554     1.267481  1010000 
  307000   0.84556739   -4.1671128   -4.1671128   -2.8987629  0.022753312   -4.1671128    1.2683498  1010000 
  308000    0.8444161    -4.166781    -4.166781   -2.9001581  0.022663434    -4.166781    1.2666229  1010000 
  309000   0.84480434   -4.1682692   -4.1682692   -2.9010639  0.019046895   -4.1682692    1.2672052  1010000 
  310000   0.84481367    -4.168612    -4.168612   -2.9013928  0.019393575    -4.168612    1.2672192  1010000 
  311000   0.84546813   -4.1698767   -4.1698767   -2.9016757  0.017703421   -4.1698767    1.2682009  1010000 
  312000   0.84460855   -4.1693173   -4.1693173   -2.9024057  0.017960656   -4.1693173    1.2669116  1010000 
  313000   0.84475871   -4.1696815   -4.1696815   -2.9025447  0.017482175   -4.1696815    1.2671368  1010000 
  314000   0.84488773   -4.1708651   -4.1708651   -2.9035347   0.01940114   -4.1708651    1.2673303  1010000 
  315000    0.8448016   -4.1709209   -4.1709209   -2.9037198  0.020285566   -4.1709209    1.2672011  1010000 
  316000   0.84528904   -4.1722178   -4.1722178   -2.9042855  0.013702833   -4.1722178    1.2679323  1010000 
  317000    0.8444531   -4.1718156   -4.1718156   -2.9051372   0.02247631   -4.1718156    1.2666784  1010000 
  318000    0.8455053   -4.1744661   -4.1744661   -2.9062094   0.01881932   -4.1744661    1.2682567  1010000 
  319000   0.84616887   -4.1762667   -4.1762667   -2.9070147  0.019188136   -4.1762667     1.269252  1010000 
  320000   0.84563985   -4.1769815   -4.1769815    -2.908523  0.021423538   -4.1769815    1.2684585  1010000 
  321000   0.84671015   -4.1792735   -4.1792735   -2.9092095  0.024147979   -4.1792735     1.270064  1010000 
  322000   0.84634982   -4.1799831   -4.1799831   -2.9104596  0.027133315   -4.1799831    1.2695235  1010000 
  323000   0.84638238   -4.1807876   -4.1807876   -2.9112152  0.028522845   -4.1807876    1.2695723  1010000 
  324000   0.84735226   -4.1830753   -4.1830753   -2.9120482  0.029382534   -4.1830753    1.2710271  1010000 
  325000   0.84796644   -4.1854195   -4.1854195   -2.9134711  0.030046677   -4.1854195    1.2719484  1010000 
  326000   0.84676872   -4.1848635   -4.1848635   -2.9147117  0.031854969   -4.1848635    1.2701518  1010000 
  327000   0.84685449   -4.1868852   -4.1868852   -2.9166047  0.029943122   -4.1868852    1.2702805  1010000 
  328000   0.84615524   -4.1863852   -4.1863852   -2.9171536  0.032610468   -4.1863852    1.2692316  1010000 
  329000   0.84752744    -4.189646    -4.189646   -2.9183561  0.024802259    -4.189646    1.2712899  1010000 
  330000   0.84737398   -4.1903696   -4.1903696   -2.9193098  0.034118741   -4.1903696    1.2710597  1010000 
  331000   0.84762492    -4.191579    -4.191579   -2.9201429  0.035525362    -4.191579    1.2714361  1010000 
  332000   0.84791661   -4.1929593   -4.1929593   -2.9210856  0.038026062   -4.1929593    1.2718736  1010000 
  333000   0.84810333   -4.1940529   -4.1940529   -2.9218992  0.037827778   -4.1940529    1.2721537  1010000 
  334000   0.84828456   -4.1951453   -4.1951453   -2.9227197  0.039483802   -4.1951453    1.2724256  1010000 
  335000   0.84754296   -4.1954708   -4.1954708   -2.9241577  0.043209807   -4.1954708    1.2713132  1010000 
  336000   0.84784153   -4.1962419   -4.1962419   -2.9244809  0.037004984   -4.1962419     1.271761  1010000 
  337000   0.84749242   -4.1970218   -4.1970218   -2.9257844  0.035750227   -4.1970218    1.2712374  1010000 
  338000   0.84602763   -4.1960589   -4.1960589   -2.9270187  0.031259929   -4.1960589    1.2690402  1010000 
  339000   0.84487906   -4.1958482   -4.1958482   -2.9285308  0.026737379   -4.1958482    1.2673173  1010000 
  340000   0.84370882    -4.195021    -4.195021    -2.929459  0.025558437    -4.195021     1.265562  1010000 
  341000   0.84310989   -4.1943674   -4.1943674   -2.9297038  0.018931959   -4.1943674    1.2646636  1010000 
  342000   0.84070385   -4.1910499   -4.1910499   -2.9299954  0.019493295   -4.1910499    1.2610545  1010000 
  343000   0.84015879   -4.1909147   -4.1909147   -2.9306778  0.014409306   -4.1909147    1.2602369  1010000 
  344000   0.83883286   -4.1885965   -4.1885965   -2.9303485  0.013391643   -4.1885965     1.258248  1010000 
  345000   0.83866675   -4.1882479   -4.1882479    -2.930249 0.0080668892   -4.1882479    1.2579989  1010000 
  346000   0.83871087   -4.1881917   -4.1881917   -2.9301267 0.0090608916   -4.1881917    1.2580651  1010000 
  347000   0.83862279    -4.187399    -4.187399    -2.929466 0.0048167928    -4.187399    1.2579329  1010000 
  348000   0.83723843   -4.1858913   -4.1858913   -2.9300349 0.0083554739   -4.1858913    1.2558564  1010000 
  349000   0.83947834   -4.1881741   -4.1881741   -2.9289579 0.0036750963   -4.1881741    1.2592163  1010000 
  350000   0.83810786   -4.1874903   -4.1874903   -2.9303298 0.0049186512   -4.1874903    1.2571605  1010000 
  351000   0.83762296   -4.1872478   -4.1872478   -2.9308146 0.0079131511   -4.1872478    1.2564332  1010000 
  352000   0.83907478   -4.1896066   -4.1896066   -2.9309957 0.0045090236   -4.1896066    1.2586109  1010000 
  353000   0.83828617   -4.1895902   -4.1895902   -2.9321621 0.0093139132   -4.1895902     1.257428  1010000 
  354000   0.83905017   -4.1911463   -4.1911463   -2.9325722  0.010480608   -4.1911463     1.258574  1010000 
  355000   0.83925574   -4.1928997   -4.1928997   -2.9340173   0.01007379   -4.1928997    1.2588824  1010000 
  356000   0.83958642   -4.1942632   -4.1942632   -2.9348849  0.012572162   -4.1942632    1.2593784  1010000 
  357000   0.84027475   -4.1970428   -4.1970428   -2.9366319  0.015242094   -4.1970428    1.2604109  1010000 
  358000   0.84082502    -4.197069    -4.197069   -2.9358327  0.019335499    -4.197069    1.2612363  1010000 
  359000   0.84101547   -4.1984366   -4.1984366   -2.9369146  0.021534503   -4.1984366     1.261522  1010000 
  360000   0.84186507   -4.2007843   -4.2007843    -2.937988  0.023379682   -4.2007843    1.2627963  1010000 
  361000   0.84153764   -4.2021312   -4.2021312    -2.939826  0.026269738   -4.2021312    1.2623052  1010000 
  362000   0.84216625    -4.204093    -4.204093   -2.9408449  0.030836249    -4.204093    1.2632481  1010000 
  363000   0.84163629   -4.2042222   -4.2042222    -2.941769  0.030873814   -4.2042222    1.2624532  1010000 
  364000   0.84167418   -4.2058121   -4.2058121   -2.9433021  0.032972901   -4.2058121      1.26251  1010000 
  365000   0.84232291   -4.2072154   -4.2072154   -2.9437323  0.032158372   -4.2072154    1.2634831  1010000 
  366000   0.84181597   -4.2073926   -4.2073926   -2.9446699  0.031228188   -4.2073926    1.2627227  1010000 
  367000    0.8414975   -4.2076832   -4.2076832   -2.9454382  0.030686355   -4.2076832     1.262245  1010000 
  368000   0.84153165   -4.2079516   -4.2079516   -2.9456553  0.030333423   -4.2079516    1.2622962  1010000 
  369000   0.84174898   -4.2091677   -4.2091677   -2.9465455  0.031088013   -4.2091677    1.2626222  1010000 
  370000   0.84134476   -4.2091268   -4.2091268   -2.9471109  0.029607748   -4.2091268    1.2620159  1010000 
  371000   0.84012749    -4.208522    -4.208522    -2.948332   0.02745285    -4.208522      1.26019  1010000 
  372000   0.83964382   -4.2081763   -4.2081763   -2.9487118  0.019909185   -4.2081763    1.2594645  1010000 
  373000   0.83838841   -4.2081195   -4.2081195   -2.9505381  0.022038474   -4.2081195    1.2575814  1010000 
  374000   0.83902794   -4.2085187   -4.2085187    -2.949978  0.017956786   -4.2085187    1.2585407  1010000 
  375000   0.83778164   -4.2071363   -4.2071363   -2.9504651  0.015260415   -4.2071363    1.2566712  1010000 
  376000   0.83698835   -4.2062025   -4.2062025   -2.9507212  0.014682241   -4.2062025    1.2554813  1010000 
  377000   0.83658045   -4.2058191   -4.2058191   -2.9509497  0.011450728   -4.2058191    1.2548694  1010000 
  378000   0.83612968   -4.2045423   -4.2045423   -2.9503491  0.013218654   -4.2045423    1.2541933  1010000 
  379000   0.83681043   -4.2059459   -4.2059459   -2.9507315   0.01009049   -4.2059459    1.2552144  1010000 
  380000   0.83664629   -4.2056711   -4.2056711   -2.9507029  0.010370607   -4.2056711    1.2549682  1010000 
  381000   0.83588757   -4.2054238   -4.2054238   -2.9515937  0.012259048   -4.2054238    1.2538301  1010000 
  382000   0.83606015   -4.2069005   -4.2069005   -2.9528115  0.011056123   -4.2069005     1.254089  1010000 
  383000    0.8358826   -4.2069424   -4.2069424   -2.9531198 0.0077177739   -4.2069424    1.2538227  1010000 
  384000   0.83535478   -4.2069479   -4.2069479   -2.9539169 0.0065623302   -4.2069479    1.2530309  1010000 
  385000   0.83636273   -4.2086659   -4.2086659    -2.954123  0.011720649   -4.2086659    1.2545429  1010000 
  386000   0.83639517   -4.2094492   -4.2094492   -2.9548577 0.0087390831   -4.2094492    1.2545915  1010000 
  387000   0.83536073   -4.2093938   -4.2093938   -2.9563539  0.015136965   -4.2093938    1.2530399  1010000 
  388000     0.836217   -4.2120459   -4.2120459   -2.9577216  0.012412925   -4.2120459    1.2543243  1010000 
  389000   0.83618594   -4.2128677   -4.2128677   -2.9585901  0.016772771   -4.2128677    1.2542777  1010000 
  390000    0.8368975   -4.2145057   -4.2145057   -2.9591607  0.022605922   -4.2145057     1.255345  1010000 
  391000   0.83768654   -4.2165862   -4.2165862   -2.9600576  0.022537263   -4.2165862    1.2565286  1010000 
  392000   0.83791655   -4.2175908   -4.2175908   -2.9607172  0.021659106   -4.2175908    1.2568736  1010000 
  393000   0.83829876   -4.2185973   -4.2185973   -2.9611504   0.02668456   -4.2185973    1.2574469  1010000 
  394000   0.83795242   -4.2195668   -4.2195668   -2.9626394  0.027347948   -4.2195668    1.2569274  1010000 
  395000    0.8384527    -4.221106    -4.221106   -2.9634282  0.025703795    -4.221106    1.2576778  1010000 
  396000   0.83855928   -4.2216473   -4.2216473   -2.9638096  0.027521962   -4.2216473    1.2578377  1010000 
  397000    0.8382743   -4.2222314   -4.2222314   -2.9648212  0.030220104   -4.2222314    1.2574102  1010000 
  398000   0.83776771   -4.2228808   -4.2228808   -2.9662305  0.029512462   -4.2228808    1.2566503  1010000 
  399000   0.83837663   -4.2241057   -4.2241057    -2.966542  0.029604515   -4.2241057    1.2575637  1010000 
  400000   0.83729285   -4.2232143   -4.2232143   -2.9672763  0.031810095   -4.2232143     1.255938  1010000 
  401000   0.83685733   -4.2230409   -4.2230409   -2.9677561   0.02855997   -4.2230409    1.2552848  1010000 
  402000   0.83763085   -4.2243822   -4.2243822   -2.9679371   0.02617564   -4.2243822     1.256445  1010000 
  403000   0.83618589   -4.2233476   -4.2233476     -2.96907   0.02570111   -4.2233476    1.2542776  1010000 
  404000    0.8357798   -4.2225895   -4.2225895   -2.9689211  0.023041609   -4.2225895    1.2536685  1010000 
  405000   0.83528834   -4.2226028   -4.2226028   -2.9696715  0.020123729   -4.2226028    1.2529313  1010000 
  406000   0.83453468   -4.2221274   -4.2221274   -2.9703267  0.018212981   -4.2221274    1.2518008  1010000 
  407000   0.83405164   -4.2219775   -4.2219775   -2.9709013  0.016655243   -4.2219775    1.2510762  1010000 
  408000   0.83396925   -4.2213518   -4.2213518   -2.9703992  0.012470499   -4.2213518    1.2509526  1010000 
  409000   0.83439857   -4.2227079   -4.2227079   -2.9711113  0.011614908   -4.2227079    1.2515966  1010000 
  410000   0.83222421   -4.2194922   -4.2194922   -2.9711571  0.016282817   -4.2194922    1.2483351  1010000 
  411000    0.8332618   -4.2219822   -4.2219822   -2.9720908  0.013837642   -4.2219822    1.2498915  1010000 
  412000   0.83330857    -4.222138    -4.222138   -2.9721764  0.010659779    -4.222138    1.2499616  1010000 
  413000   0.83214956   -4.2214708   -4.2214708   -2.9732477  0.013953433   -4.2214708    1.2482231  1010000 
  414000   0.83272609   -4.2223387   -4.2223387   -2.9732508  0.012271458   -4.2223387    1.2490879  1010000 
  415000   0.83338279   -4.2241234   -4.2241234   -2.9740505  0.011364932   -4.2241234    1.2500729  1010000 
  416000   0.83329122   -4.2243374   -4.2243374   -2.9744019  0.012613842   -4.2243374    1.2499356  1010000 
  417000    0.8329374   -4.2238205   -4.2238205   -2.9744156  0.016643632   -4.2238205    1.2494049  1010000 
  418000   0.83388886   -4.2253329   -4.2253329   -2.9745009  0.018522658   -4.2253329    1.2508321  1010000 
  419000    0.8344861   -4.2270371   -4.2270371   -2.9753092  0.022154538   -4.2270371    1.2517279  1010000 
  420000   0.83402295   -4.2269503   -4.2269503   -2.9759171  0.021173719   -4.2269503    1.2510332  1010000 
  421000    0.8339942   -4.2283323   -4.2283323   -2.9773422  0.023768749   -4.2283323    1.2509901  1010000 
  422000   0.83523165   -4.2297089   -4.2297089   -2.9768627  0.021094562   -4.2297089    1.2528462  1010000 
  423000   0.83480044   -4.2304009   -4.2304009   -2.9782015  0.025685658   -4.2304009    1.2521994  1010000 
  424000   0.83444743   -4.2312179   -4.2312179    -2.979548  0.023670416   -4.2312179    1.2516699  1010000 
  425000   0.83452824   -4.2320316   -4.2320316   -2.9802405  0.024380087   -4.2320316    1.2517911  1010000 
  426000   0.83403068     -4.23298     -4.23298   -2.9819352  0.023165643     -4.23298    1.2510448  1010000 
  427000    0.8337677    -4.233236    -4.233236   -2.9825857  0.023531182    -4.233236    1.2506503  1010000 
  428000   0.83293279   -4.2331998   -4.2331998   -2.9838019  0.024376768   -4.2331998    1.2493979  1010000 
  429000   0.83306652   -4.2339259   -4.2339259   -2.9843274  0.024652106   -4.2339259    1.2495985  1010000 
  430000    0.8328459   -4.2346433   -4.2346433   -2.9853757  0.019632186   -4.2346433    1.2492676  1010000 
  431000   0.83302612   -4.2345873   -4.2345873   -2.9850494  0.024508214   -4.2345873    1.2495379  1010000 
  432000   0.83274835    -4.234992    -4.234992   -2.9858707  0.022781015    -4.234992    1.2491213  1010000 
  433000   0.83266513   -4.2358803   -4.2358803   -2.9868838  0.021030545   -4.2358803    1.2489965  1010000 
  434000   0.83212497   -4.2363469   -4.2363469   -2.9881607  0.021594626   -4.2363469    1.2481862  1010000 
  435000   0.83180897   -4.2364315   -4.2364315   -2.9887192  0.021385706   -4.2364315    1.2477122  1010000 
  436000   0.83120978   -4.2364423   -4.2364423   -2.9896289   0.02183518   -4.2364423    1.2468134  1010000 
  437000   0.82965075   -4.2340021   -4.2340021   -2.9895272  0.022607639   -4.2340021    1.2444749  1010000 
  438000   0.83156919   -4.2371473   -4.2371473   -2.9897947  0.017761889   -4.2371473    1.2473525  1010000 
  439000   0.83146437   -4.2376496   -4.2376496   -2.9904543  0.021234438   -4.2376496    1.2471953  1010000 
  440000   0.83155521   -4.2381046   -4.2381046    -2.990773   0.02074397   -4.2381046    1.2473316  1010000 
  441000   0.83116675   -4.2382283   -4.2382283   -2.9914794  0.018968302   -4.2382283    1.2467489  1010000 
  442000   0.83096743   -4.2390888   -4.2390888   -2.9926389  0.018913498   -4.2390888    1.2464499  1010000 
  443000   0.83102483   -4.2390616   -4.2390616   -2.9925256  0.020520474   -4.2390616     1.246536  1010000 
  444000   0.83128372   -4.2398241   -4.2398241   -2.9928997  0.020926722   -4.2398241    1.2469243  1010000 
  445000   0.83064898   -4.2387645   -4.2387645   -2.9927923  0.020860926   -4.2387645    1.2459722  1010000 
  446000   0.83046773   -4.2390909   -4.2390909   -2.9933905  0.019506577   -4.2390909    1.2457004  1010000 
  447000   0.83032081   -4.2405502   -4.2405502   -2.9950703  0.017292668   -4.2405502      1.24548  1010000 
  448000   0.83044509    -4.241322    -4.241322   -2.9956556  0.022912528    -4.241322    1.2456664  1010000 
  449000   0.83056224   -4.2426786   -4.2426786   -2.9968364  0.017391036   -4.2426786    1.2458421  1010000 
  450000   0.83046666   -4.2424638   -4.2424638    -2.996765  0.020269854   -4.2424638    1.2456988  1010000 
  451000   0.83040585   -4.2436058   -4.2436058   -2.9979982  0.019836745   -4.2436058    1.2456075  1010000 
  452000   0.82929746   -4.2420674   -4.2420674   -2.9981225  0.020435905   -4.2420674     1.243945  1010000 
  453000   0.83041172    -4.243775    -4.243775   -2.9981586  0.021486569    -4.243775    1.2456163  1010000 
  454000   0.83019813   -4.2440593   -4.2440593   -2.9987634  0.022508544   -4.2440593     1.245296  1010000 
  455000   0.83031553   -4.2446427   -4.2446427   -2.9991706  0.024398627   -4.2446427    1.2454721  1010000 
  456000   0.83001462   -4.2441069   -4.2441069   -2.9990862  0.023634889   -4.2441069    1.2450207  1010000 
  457000   0.83073342   -4.2459054   -4.2459054   -2.9998065  0.023718058   -4.2459054    1.2460989  1010000 
  458000   0.83083709   -4.2468458   -4.2468458   -3.0005914  0.021517349   -4.2468458    1.2462544  1010000 
  459000   0.82996894   -4.2462434   -4.2462434   -3.0012913  0.025038121   -4.2462434    1.2449522  1010000 
  460000   0.82988292   -4.2471763   -4.2471763   -3.0023532  0.020449694   -4.2471763    1.2448231  1010000 
  461000   0.82974295   -4.2473866   -4.2473866   -3.0027734   0.01851545   -4.2473866    1.2446132  1010000 
  462000   0.82988756   -4.2483771   -4.2483771    -3.003547  0.018384868   -4.2483771    1.2448301  1010000 
  463000   0.82930168   -4.2476286   -4.2476286   -3.0036773  0.023382492   -4.2476286    1.2439513  1010000 
  464000    0.8289827   -4.2480381   -4.2480381   -3.0045653  0.022688632   -4.2480381    1.2434728  1010000 
  465000   0.82823546   -4.2480898   -4.2480898   -3.0057378   0.02193153   -4.2480898     1.242352  1010000 
  466000   0.82797248   -4.2485533   -4.2485533   -3.0065958  0.020038181   -4.2485533    1.2419575  1010000 
  467000    0.8286772    -4.250249    -4.250249   -3.0072344  0.016584668    -4.250249    1.2430146  1010000 
  468000   0.82865753   -4.2498063   -4.2498063   -3.0068212  0.022097505   -4.2498063    1.2429851  1010000 
  469000   0.82839373   -4.2500061   -4.2500061   -3.0074167  0.020731418   -4.2500061    1.2425894  1010000 
  470000   0.82832656   -4.2503164   -4.2503164   -3.0078278  0.020061903   -4.2503164    1.2424886  1010000 
  471000   0.82861785   -4.2513195   -4.2513195   -3.0083939  0.018483953   -4.2513195    1.2429255  1010000 
  472000   0.82798963   -4.2510948   -4.2510948   -3.0091116  0.019141167   -4.2510948    1.2419832  1010000 
  473000   0.82844253   -4.2522547   -4.2522547   -3.0095921  0.021348194   -4.2522547    1.2426626  1010000 
  474000   0.82796974    -4.251754    -4.251754   -3.0098006  0.021651384    -4.251754    1.2419534  1010000 
  475000   0.82742995     -4.25095     -4.25095   -3.0098064  0.025578289     -4.25095    1.2411437  1010000 
  476000    0.8284287    -4.253168    -4.253168   -3.0105262  0.019177705    -4.253168    1.2426418  1010000 
  477000   0.82845241   -4.2536498   -4.2536498   -3.0109724  0.021017193   -4.2536498    1.2426774  1010000 
  478000   0.82830037   -4.2550845   -4.2550845   -3.0126352  0.018169564   -4.2550845    1.2424493  1010000 
  479000   0.82812423    -4.254774    -4.254774   -3.0125889  0.022108658    -4.254774    1.2421851  1010000 
  480000   0.82682762   -4.2537302   -4.2537302     -3.01349  0.025436289   -4.2537302    1.2402402  1010000 
  481000   0.82778912   -4.2557269   -4.2557269   -3.0140444  0.021536273   -4.2557269    1.2416825  1010000 
  482000   0.82630832   -4.2543451   -4.2543451   -3.0148838  0.021191744   -4.2543451    1.2394612  1010000 
  483000   0.82699131   -4.2554679   -4.2554679   -3.0149822  0.021091934   -4.2554679    1.2404857  1010000 
  484000   0.82702785   -4.2569023   -4.2569023   -3.0163618  0.021097426   -4.2569023    1.2405405  1010000 
  485000   0.82655973   -4.2563128   -4.2563128   -3.0164745  0.020522377   -4.2563128    1.2398384  1010000 
  486000   0.82784336   -4.2581682   -4.2581682   -3.0164044  0.017743428   -4.2581682    1.2417638  1010000 
  487000   0.82660506   -4.2573963   -4.2573963   -3.0174899   0.01921707   -4.2573963    1.2399064  1010000 
  488000   0.82662991   -4.2573634   -4.2573634   -3.0174197  0.024644902   -4.2573634    1.2399436  1010000 
  489000   0.82672079   -4.2576319   -4.2576319   -3.0175519  0.022643253   -4.2576319      1.24008  1010000 
  490000   0.82714016   -4.2587389   -4.2587389   -3.0180299  0.021784838   -4.2587389     1.240709  1010000 
  491000   0.82634341   -4.2584912   -4.2584912   -3.0189773  0.023113326   -4.2584912    1.2395139  1010000 
  492000   0.82639021   -4.2594044   -4.2594044   -3.0198203  0.020982451   -4.2594044    1.2395841  1010000 
  493000   0.82697978   -4.2608906   -4.2608906   -3.0204221   0.01710847   -4.2608906    1.2404684  1010000 
  494000    0.8269167   -4.2605714   -4.2605714   -3.0201976  0.022615033   -4.2605714    1.2403738  1010000 
  495000   0.82620578    -4.260245    -4.260245   -3.0209375  0.023507005    -4.260245    1.2393074  1010000 
  496000   0.82684844   -4.2618664   -4.2618664    -3.021595  0.021605047   -4.2618664    1.2402714  1010000 
  497000   0.82567326   -4.2609633   -4.2609633   -3.0224546   0.02117113   -4.2609633    1.2385087  1010000 
  498000    0.8246499   -4.2600947   -4.2600947   -3.0231211  0.025009889   -4.2600947    1.2369736  1010000 
  499000   0.82593836   -4.2624283   -4.2624283    -3.023522  0.019299363   -4.2624283    1.2389063  1010000 
  500000   0.82561638   -4.2628035   -4.2628035   -3.0243802  0.020902371   -4.2628035    1.2384233  1010000 
  501000    0.8244841   -4.2619291   -4.2619291   -3.0252042  0.021383247   -4.2619291    1.2367249  1010000 
  502000   0.82548491   -4.2634603   -4.2634603   -3.0252341    0.0242402   -4.2634603    1.2382261  1010000 
  503000   0.82575031   -4.2643226   -4.2643226   -3.0256984  0.019654238   -4.2643226    1.2386242  1010000 
  504000   0.82537956   -4.2652544   -4.2652544   -3.0271863  0.017044577   -4.2652544    1.2380681  1010000 
  505000   0.82570357   -4.2654928   -4.2654928   -3.0269387  0.021763905   -4.2654928    1.2385541  1010000 
  506000   0.82564667   -4.2655718   -4.2655718    -3.027103   0.02379194   -4.2655718    1.2384688  1010000 
  507000   0.82498879   -4.2655893   -4.2655893   -3.0281074  0.025440853   -4.2655893     1.237482  1010000 
  508000    0.8258572   -4.2676495   -4.2676495   -3.0288649  0.025246581   -4.2676495    1.2387846  1010000 
  509000   0.82486515    -4.267127    -4.267127   -3.0298305  0.023853406    -4.267127    1.2372965  1010000 
  510000    0.8238116   -4.2656785   -4.2656785   -3.0299623  0.027405399   -4.2656785    1.2357162  1010000 
  511000   0.82549737   -4.2684691   -4.2684691   -3.0302243   0.02169575   -4.2684691    1.2382448  1010000 
  512000   0.82421073   -4.2673268   -4.2673268   -3.0310119  0.024862796   -4.2673268    1.2363149  1010000 
  513000   0.82425477   -4.2683327   -4.2683327   -3.0319517   0.02087964   -4.2683327    1.2363809  1010000 
  514000    0.8242445   -4.2688742   -4.2688742   -3.0325087  0.021210567   -4.2688742    1.2363655  1010000 
  515000   0.82493341   -4.2709359   -4.2709359    -3.033537   0.01974413   -4.2709359    1.2373989  1010000 
  516000   0.82388999   -4.2698285   -4.2698285   -3.0339948  0.024258415   -4.2698285    1.2358338  1010000 
  517000   0.82394708   -4.2693286   -4.2693286   -3.0334092   0.02582891   -4.2693286    1.2359194  1010000 
  518000    0.8237644   -4.2695467   -4.2695467   -3.0339013  0.022655798   -4.2695467    1.2356454  1010000 
  519000   0.82442561   -4.2704582   -4.2704582    -3.033821  0.020244002   -4.2704582    1.2366372  1010000 
  520000   0.82429622    -4.270455    -4.270455   -3.0340119  0.021059318    -4.270455    1.2364431  1010000 
  521000    0.8236252   -4.2700046   -4.2700046    -3.034568  0.026615613   -4.2700046    1.2354366  1010000 
  522000   0.82397929   -4.2710785   -4.2710785   -3.0351108  0.021214668   -4.2710785    1.2359677  1010000 
  523000   0.82305733   -4.2703244   -4.2703244   -3.0357396  0.020465541   -4.2703244    1.2345848  1010000 
  524000   0.82393615   -4.2712441   -4.2712441   -3.0353411  0.021009757   -4.2712441     1.235903  1010000 
  525000   0.82426587   -4.2729041   -4.2729041   -3.0365065  0.020683574   -4.2729041    1.2363976  1010000 
  526000    0.8237873    -4.272172    -4.272172   -3.0364923  0.019064952    -4.272172    1.2356797  1010000 
  527000   0.82452222    -4.273991    -4.273991   -3.0372089  0.021127852    -4.273991    1.2367821  1010000 
  528000   0.82410296   -4.2734041   -4.2734041   -3.0372509  0.017739667   -4.2734041    1.2361532  1010000 
  529000   0.82316588   -4.2727142   -4.2727142   -3.0379666  0.022586788   -4.2727142    1.2347476  1010000 
  530000   0.82396313    -4.273904    -4.273904   -3.0379605  0.019511291    -4.273904    1.2359435  1010000 
  531000   0.82342773   -4.2734866   -4.2734866   -3.0383463  0.019251221   -4.2734866    1.2351404  1010000 
  532000   0.82415842   -4.2754324   -4.2754324    -3.039196  0.020233764   -4.2754324    1.2362364  1010000 
  533000   0.82214231    -4.273455    -4.273455   -3.0402427   0.02551876    -4.273455    1.2332122  1010000 
  534000   0.82299059   -4.2753122   -4.2753122   -3.0408276  0.019003479   -4.2753122    1.2344847  1010000 
  535000   0.82329684   -4.2757263   -4.2757263   -3.0407823  0.022616953   -4.2757263     1.234944  1010000 
  536000   0.82231208   -4.2750165   -4.2750165   -3.0415496  0.020009399   -4.2750165    1.2334669  1010000 
  537000   0.82222184   -4.2750674   -4.2750674   -3.0417358  0.018999074   -4.2750674    1.2333315  1010000 
  538000   0.82252199   -4.2761524   -4.2761524   -3.0423707  0.022306625   -4.2761524    1.2337818  1010000 
  539000   0.82196989   -4.2758686   -4.2758686    -3.042915  0.021755046   -4.2758686    1.2329536  1010000 
  540000   0.82213433   -4.2771731   -4.2771731   -3.0439728  0.021823111   -4.2771731    1.2332003  1010000 
  541000   0.82195163   -4.2775863   -4.2775863   -3.0446601  0.022436478   -4.2775863    1.2329262  1010000 
  542000   0.82161871   -4.2771351   -4.2771351   -3.0447083  0.019908492   -4.2771351    1.2324268  1010000 
  543000   0.82198756   -4.2779785   -4.2779785   -3.0449983  0.020391786   -4.2779785    1.2329801  1010000 
  544000   0.82217581   -4.2791676   -4.2791676   -3.0459051   0.02221394   -4.2791676    1.2332625  1010000 
  545000   0.82223092   -4.2795858   -4.2795858   -3.0462407  0.022484468   -4.2795858    1.2333452  1010000 
  546000    0.8223294   -4.2804808   -4.2804808    -3.046988   0.01969478   -4.2804808    1.2334929  1010000 
  547000   0.82230144   -4.2803972   -4.2803972   -3.0469463  0.021009377   -4.2803972    1.2334509  1010000 
  548000   0.82167133   -4.2804924   -4.2804924   -3.0479867  0.021257932   -4.2804924    1.2325058  1010000 
  549000   0.82263609    -4.281819    -4.281819   -3.0478661  0.019017788    -4.281819    1.2339529  1010000 
  550000   0.82199722    -4.281478    -4.281478   -3.0484833    0.0233874    -4.281478    1.2329946  1010000 
  551000    0.8221768   -4.2819426   -4.2819426   -3.0486786  0.026201067   -4.2819426     1.233264  1010000 
  552000    0.8213937   -4.2822343   -4.2822343    -3.050145  0.021978089   -4.2822343    1.2320893  1010000 
  553000   0.82103948   -4.2821841   -4.2821841   -3.0506261  0.021570431   -4.2821841     1.231558  1010000 
  554000   0.82101152   -4.2831212   -4.2831212   -3.0516052  0.024323021   -4.2831212    1.2315161  1010000 
  555000   0.82062603   -4.2832848   -4.2832848    -3.052347  0.023445924   -4.2832848    1.2309378  1010000 
  556000   0.82091201   -4.2842814   -4.2842814   -3.0529146  0.021372606   -4.2842814    1.2313668  1010000 
  557000   0.82114671   -4.2850092   -4.2850092   -3.0532904  0.019193276   -4.2850092    1.2317188  1010000 
  558000   0.82072033   -4.2844326   -4.2844326   -3.0533533   0.02304028   -4.2844326    1.2310793  1010000 
  559000   0.82087998   -4.2853644   -4.2853644   -3.0540457  0.022677489   -4.2853644    1.2313188  1010000 
  560000   0.82122784    -4.285765    -4.285765   -3.0539245  0.023380932    -4.285765    1.2318405  1010000 
  561000   0.82086304   -4.2861518   -4.2861518   -3.0548585  0.022067629   -4.2861518    1.2312933  1010000 
  562000   0.82125914   -4.2871786   -4.2871786   -3.0552911  0.020295835   -4.2871786    1.2318875  1010000 
  563000   0.82014354   -4.2855384   -4.2855384   -3.0553243  0.024564404   -4.2855384    1.2302141  1010000 
  564000   0.82144416   -4.2881158   -4.2881158   -3.0559508  0.018896451   -4.2881158     1.232165  1010000 
  565000   0.81984561   -4.2858149   -4.2858149   -3.0560477  0.023933685   -4.2858149    1.2297672  1010000 
  566000   0.81989183   -4.2868544   -4.2868544   -3.0570179  0.021168389   -4.2868544    1.2298365  1010000 
  567000   0.82033573   -4.2880383   -4.2880383   -3.0575359  0.021815197   -4.2880383    1.2305024  1010000 
  568000   0.81997529   -4.2874173   -4.2874173   -3.0574556   0.02110765   -4.2874173    1.2299617  1010000 
  569000   0.82024591   -4.2889804   -4.2889804   -3.0586128  0.020143028   -4.2889804    1.2303676  1010000 
  570000   0.81951169   -4.2883112   -4.2883112   -3.0590449   0.02155722   -4.2883112    1.2292663  1010000 
  571000   0.81942511   -4.2884765   -4.2884765   -3.0593401  0.022127918   -4.2884765    1.2291365  1010000 
  572000   0.81924213    -4.288985    -4.288985   -3.0601231  0.020664559    -4.288985     1.228862  1010000 
  573000   0.81926266    -4.289464    -4.289464   -3.0605713  0.023264275    -4.289464    1.2288928  1010000 
  574000   0.81895694   -4.2898135   -4.2898135   -3.0613793  0.016019045   -4.2898135    1.2284342  1010000 
  575000   0.81810819   -4.2892012   -4.2892012   -3.0620402  0.020008997   -4.2892012    1.2271611  1010000 
  576000   0.81828697   -4.2899332   -4.2899332   -3.0625039  0.021606342   -4.2899332    1.2274292  1010000 
  577000   0.81855603    -4.290931    -4.290931   -3.0630981  0.019979886    -4.290931    1.2278328  1010000 
  578000   0.81906624   -4.2915517   -4.2915517   -3.0629535  0.023399076   -4.2915517    1.2285981  1010000 
  579000   0.81935074   -4.2926536   -4.2926536   -3.0636287   0.01977922   -4.2926536    1.2290249  1010000 
  580000   0.81951531    -4.292464    -4.292464   -3.0631923  0.021312097    -4.292464    1.2292718  1010000 
  581000   0.81967123   -4.2927293   -4.2927293   -3.0632237  0.024501287   -4.2927293    1.2295056  1010000 
  582000   0.82011649   -4.2938536   -4.2938536   -3.0636801  0.023510801   -4.2938536    1.2301735  1010000 
  583000   0.81878193   -4.2931605   -4.2931605   -3.0649889  0.021742065   -4.2931605    1.2281717  1010000 
  584000   0.81914653   -4.2943776   -4.2943776   -3.0656591  0.023801492   -4.2943776    1.2287186  1010000 
  585000    0.8185262   -4.2939774   -4.2939774   -3.0661893  0.026693785   -4.2939774    1.2277881  1010000 
  586000   0.81805674   -4.2936447   -4.2936447   -3.0665609  0.022304611   -4.2936447    1.2270839  1010000 
  587000    0.8179007   -4.2947999   -4.2947999     -3.06795  0.026115894   -4.2947999    1.2268498  1010000 
  588000    0.8183259   -4.2959922   -4.2959922   -3.0685046  0.019759949   -4.2959922    1.2274876  1010000 
  589000    0.8182303   -4.2966819   -4.2966819   -3.0693376  0.020541714   -4.2966819    1.2273442  1010000 
  590000   0.81765721   -4.2955269   -4.2955269   -3.0690423  0.019468738   -4.2955269    1.2264846  1010000 
  591000   0.81682822   -4.2945195   -4.2945195   -3.0692783  0.020600078   -4.2945195    1.2252411  1010000 
  592000   0.81765377   -4.2963067   -4.2963067   -3.0698273  0.020948538   -4.2963067    1.2264794  1010000 
  593000   0.81814455   -4.2974703   -4.2974703   -3.0702547  0.019420932   -4.2974703    1.2272156  1010000 
  594000   0.81796721   -4.2975606   -4.2975606    -3.070611  0.020609674   -4.2975606    1.2269496  1010000 
  595000   0.81795852   -4.2972132   -4.2972132   -3.0702766  0.023763862   -4.2972132    1.2269366  1010000 
  596000   0.81811946   -4.2978032   -4.2978032   -3.0706252    0.0216428   -4.2978032     1.227178  1010000 
  597000   0.81852124   -4.2991064   -4.2991064   -3.0713258  0.017858281   -4.2991064    1.2277806  1010000 
  598000   0.81801961   -4.2991611   -4.2991611   -3.0721329  0.020606707   -4.2991611    1.2270282  1010000 
  599000    0.8177698   -4.2989383   -4.2989383   -3.0722849  0.022302607   -4.2989383    1.2266535  1010000 
  600000   0.81708983   -4.2990043   -4.2990043   -3.0733707  0.020143772   -4.2990043    1.2256335  1010000 
  601000   0.81709958   -4.2990003   -4.2990003   -3.0733522  0.020237717   -4.2990003    1.2256482  1010000 
  602000   0.81683434   -4.2995449   -4.2995449   -3.0742946  0.019197266   -4.2995449    1.2252503  1010000 
  603000   0.81583299   -4.2987843   -4.2987843    -3.075036   0.02329203   -4.2987843    1.2237483  1010000 
  604000   0.81731362    -4.301437    -4.301437   -3.0754678  0.019312084    -4.301437    1.2259692  1010000 
  605000   0.81669988   -4.3011502   -4.3011502   -3.0761016  0.021403198   -4.3011502    1.2250486  1010000 
  606000   0.81624012   -4.3002272   -4.3002272   -3.0758682  0.023460571   -4.3002272     1.224359  1010000 
  607000   0.81626725   -4.3013228   -4.3013228   -3.0769232  0.021098793   -4.3013228    1.2243997  1010000 
  608000   0.81704965   -4.3028919   -4.3028919   -3.0773187  0.020316451   -4.3028919    1.2255733  1010000 
  609000    0.8168224    -4.302188    -4.302188   -3.0769556   0.02283572    -4.302188    1.2252324  1010000 
  610000    0.8168032   -4.3026724   -4.3026724   -3.0774688  0.022139853   -4.3026724    1.2252036  1010000 
  611000   0.81698688   -4.3033779   -4.3033779   -3.0778988  0.021335963   -4.3033779    1.2254791  1010000 
  612000   0.81687842   -4.3041121   -4.3041121   -3.0787957  0.020521906   -4.3041121    1.2253164  1010000 
  613000   0.81585074   -4.3034161   -4.3034161   -3.0796412  0.025604224   -4.3034161    1.2237749  1010000 
  614000   0.81714132   -4.3058971   -4.3058971   -3.0801863  0.019142661   -4.3058971    1.2257108  1010000 
  615000   0.81680097   -4.3058854   -4.3058854   -3.0806852  0.019109557   -4.3058854    1.2252002  1010000 
  616000   0.81592704   -4.3049539   -4.3049539   -3.0810646  0.025228882   -4.3049539    1.2238894  1010000 
  617000   0.81580143   -4.3045718   -4.3045718   -3.0808708  0.022934186   -4.3045718    1.2237009  1010000 
  618000   0.81598901   -4.3054316   -4.3054316   -3.0814493  0.024889494   -4.3054316    1.2239823  1010000 
  619000   0.81657286   -4.3071668   -4.3071668   -3.0823087  0.021818685   -4.3071668    1.2248581  1010000 
  620000   0.81618371   -4.3070334   -4.3070334   -3.0827591  0.022347594   -4.3070334    1.2242743  1010000 
  621000   0.81612272    -4.307394    -4.307394   -3.0832112  0.025350965    -4.307394    1.2241829  1010000 
  622000   0.81486661   -4.3059643   -4.3059643   -3.0836656  0.026220103   -4.3059643    1.2222987  1010000 
  623000   0.81572358   -4.3076681   -4.3076681    -3.084084  0.021331341   -4.3076681    1.2235842  1010000 
  624000   0.81578993   -4.3083462   -4.3083462   -3.0846625  0.020916095   -4.3083462    1.2236837  1010000 
  625000   0.81463466   -4.3067466   -4.3067466   -3.0847959  0.020914134   -4.3067466    1.2219508  1010000 
  626000    0.8155929    -4.308708    -4.308708   -3.0853198  0.022141646    -4.308708    1.2233881  1010000 
  627000    0.8153369   -4.3078449   -4.3078449   -3.0848408  0.023134879   -4.3078449    1.2230041  1010000 
  628000   0.81421614   -4.3069087   -4.3069087   -3.0855857   0.02676598   -4.3069087     1.221323  1010000 
  629000    0.8148009   -4.3085316   -4.3085316   -3.0863315   0.02240634   -4.3085316    1.2222001  1010000 
  630000   0.81536293   -4.3093598   -4.3093598   -3.0863167  0.019143997   -4.3093598    1.2230432  1010000 
  631000   0.81479458   -4.3093297   -4.3093297   -3.0871391  0.018532125   -4.3093297    1.2221907  1010000 
  632000   0.81539522   -4.3107414   -4.3107414   -3.0876498  0.018641925   -4.3107414    1.2230916  1010000 
  633000   0.81413092   -4.3092277   -4.3092277   -3.0880325  0.018796165   -4.3092277    1.2211952  1010000 
  634000   0.81409324   -4.3095939   -4.3095939   -3.0884552  0.019194819   -4.3095939    1.2211387  1010000 
  635000   0.81378679   -4.3098858   -4.3098858   -3.0892069  0.021836002   -4.3098858     1.220679  1010000 
  636000   0.81336875   -4.3092959   -4.3092959    -3.089244  0.018087245   -4.3092959    1.2200519  1010000 
  637000   0.81426281   -4.3110199   -4.3110199   -3.0896269  0.019858815   -4.3110199     1.221393  1010000 
  638000   0.81421921   -4.3119051   -4.3119051   -3.0905775  0.019634219   -4.3119051    1.2213276  1010000 
  639000   0.81468016   -4.3121068   -4.3121068   -3.0900878  0.022129638   -4.3121068     1.222019  1010000 
  640000    0.8142302    -4.312048    -4.312048   -3.0907039  0.023558622    -4.312048    1.2213441  1010000 
  641000   0.81502868   -4.3135521   -4.3135521   -3.0910103  0.022489126   -4.3135521    1.2225418  1010000 
  642000   0.81471918   -4.3125487   -4.3125487   -3.0904711  0.025890922   -4.3125487    1.2220776  1010000 
  643000   0.81462018   -4.3132881   -4.3132881    -3.091359  0.027233746   -4.3132881    1.2219291  1010000 
  644000   0.81448014   -4.3135715   -4.3135715   -3.0918525  0.024141648   -4.3135715     1.221719  1010000 
  645000   0.81505539   -4.3158411   -4.3158411   -3.0932592  0.022280595   -4.3158411    1.2225819  1010000 
  646000   0.81370442   -4.3145648   -4.3145648   -3.0940094  0.024223541   -4.3145648    1.2205554  1010000 
  647000    0.8146575   -4.3160468   -4.3160468   -3.0940618  0.020821213   -4.3160468     1.221985  1010000 
  648000   0.81408025   -4.3161016   -4.3161016   -3.0949824  0.022252126   -4.3161016    1.2211192  1010000 
  649000   0.81297674   -4.3147934   -4.3147934   -3.0953295  0.025215855   -4.3147934    1.2194639  1010000 
  650000   0.81265197   -4.3148414   -4.3148414   -3.0958646  0.023794119   -4.3148414    1.2189767  1010000 
  651000   0.81416096   -4.3174931   -4.3174931   -3.0962529  0.018655707   -4.3174931    1.2212402  1010000 
  652000   0.81399397   -4.3176115   -4.3176115   -3.0966218  0.023251176   -4.3176115    1.2209897  1010000 
  653000   0.81402468   -4.3179941   -4.3179941   -3.0969583  0.022405219   -4.3179941    1.2210358  1010000 
  654000   0.81325299   -4.3170333   -4.3170333   -3.0971551  0.024083569   -4.3170333    1.2198783  1010000 
  655000   0.81291346   -4.3169473   -4.3169473   -3.0975783  0.021861136   -4.3169473     1.219369  1010000 
  656000   0.81345976   -4.3181161   -4.3181161   -3.0979277  0.023516412   -4.3181161    1.2201884  1010000 
  657000   0.81279861   -4.3183439   -4.3183439   -3.0991472   0.02527103   -4.3183439    1.2191967  1010000 
  658000   0.81331551   -4.3193816   -4.3193816   -3.0994095   0.02127541   -4.3193816    1.2199721  1010000 
  659000   0.81217633   -4.3184585   -4.3184585   -3.1001953  0.022037673   -4.3184585    1.2182633  1010000 
  660000   0.81300445   -4.3202284   -4.3202284    -3.100723  0.021155006   -4.3202284    1.2195055  1010000 
  661000    0.8125414   -4.3203257   -4.3203257   -3.1015148  0.016119364   -4.3203257    1.2188109  1010000 
  662000   0.81236434   -4.3198463   -4.3198463    -3.101301  0.022801793   -4.3198463    1.2185453  1010000 
  663000   0.81298901   -4.3216577   -4.3216577   -3.1021754  0.021474238   -4.3216577    1.2194823  1010000 
  664000   0.81212793   -4.3212053   -4.3212053   -3.1030146  0.021888655   -4.3212053    1.2181907  1010000 
  665000   0.81270502   -4.3214392   -4.3214392   -3.1023829  0.021539353   -4.3214392    1.2190563  1010000 
  666000   0.81269379   -4.3223263   -4.3223263   -3.1032868  0.019645812   -4.3223263    1.2190395  1010000 
  667000   0.81226856   -4.3221688   -4.3221688   -3.1037672  0.018506827   -4.3221688    1.2184016  1010000 
  668000   0.81231182   -4.3223375   -4.3223375    -3.103871  0.023169506   -4.3223375    1.2184665  1010000 
  669000   0.81155473   -4.3231648   -4.3231648   -3.1058339  0.021473497   -4.3231648    1.2173309  1010000 
  670000   0.81160504   -4.3232116   -4.3232116   -3.1058052  0.023318759   -4.3232116    1.2174064  1010000 
  671000   0.81151032   -4.3234838   -4.3234838   -3.1062196  0.023123615   -4.3234838    1.2172643  1010000 
  672000   0.81154693   -4.3240463   -4.3240463   -3.1067271   0.02210203   -4.3240463    1.2173192  1010000 
  673000   0.81147045   -4.3248057   -4.3248057   -3.1076013  0.019454257   -4.3248057    1.2172045  1010000 
  674000    0.8113222    -4.325359    -4.325359   -3.1083769  0.024264625    -4.325359    1.2169821  1010000 
  675000   0.81182903   -4.3259403   -4.3259403    -3.108198  0.021842402   -4.3259403    1.2177423  1010000 
  676000   0.81146449   -4.3259368   -4.3259368   -3.1087413  0.020963398   -4.3259368    1.2171955  1010000 
  677000   0.81199193   -4.3263546   -4.3263546    -3.108368  0.023114494   -4.3263546    1.2179867  1010000 
  678000   0.81273168   -4.3273177   -4.3273177   -3.1082214  0.025226808   -4.3273177    1.2190963  1010000 
  679000   0.81214958   -4.3271049   -4.3271049   -3.1088817  0.025766866   -4.3271049    1.2182232  1010000 
  680000   0.81190335   -4.3277303   -4.3277303   -3.1098765  0.019514872   -4.3277303    1.2178538  1010000 
  681000   0.81207681   -4.3281995   -4.3281995   -3.1100855  0.022096654   -4.3281995     1.218114  1010000 
  682000   0.81211902   -4.3290924   -4.3290924   -3.1109151   0.02234348   -4.3290924    1.2181773  1010000 
  683000   0.81154776   -4.3284461   -4.3284461   -3.1111257  0.021708138   -4.3284461    1.2173204  1010000 
  684000   0.81102745   -4.3292988   -4.3292988   -3.1127589  0.017108558   -4.3292988      1.21654  1010000 
[...]
 2834000    0.6548789   -5.0211195   -5.0211195   -4.0388021 0.0081588353   -5.0211195   0.98231738  1010000 
 2835000   0.65534884   -5.0225667   -5.0225667   -4.0395444 0.0030776577   -5.0225667   0.98302229  1010000 
 2836000   0.65475801   -5.0219634   -5.0219634   -4.0398273  0.007651284   -5.0219634   0.98213605  1010000 
 2837000   0.65493272   -5.0228584   -5.0228584   -4.0404602 0.0046281161   -5.0228584    0.9823981  1010000 
 2838000    0.6552625   -5.0238005   -5.0238005   -4.0409077 0.0057611111   -5.0238005   0.98289277  1010000 
 2839000   0.65393764   -5.0224507   -5.0224507   -4.0415452 0.0088635491   -5.0224507   0.98090548  1010000 
 2840000   0.65446848   -5.0239787   -5.0239787    -4.042277 0.0022601332   -5.0239787   0.98170175  1010000 
 2841000   0.65448998    -5.024197    -5.024197    -4.042463 0.0011347773    -5.024197   0.98173399  1010000 
 2842000   0.65320616   -5.0233346   -5.0233346   -4.0435263 0.0042959223   -5.0233346   0.97980827  1010000 
 2843000   0.65275143   -5.0229433   -5.0229433   -4.0438171 0.0046418956   -5.0229433   0.97912618  1010000 
 2844000   0.65386674   -5.0248411   -5.0248411   -4.0440419 0.0018596291   -5.0248411   0.98079914  1010000 
 2845000   0.65393284   -5.0251602   -5.0251602   -4.0442619 0.0027156884   -5.0251602    0.9808983  1010000 
 2846000   0.65411967    -5.025693    -5.025693   -4.0445144 0.0022318158    -5.025693   0.98117854  1010000 
 2847000   0.65342922   -5.0252291   -5.0252291   -4.0450862 0.0061930615   -5.0252291   0.98014286  1010000 
 2848000   0.65386148   -5.0255435   -5.0255435   -4.0447522 0.0060594237   -5.0255435   0.98079126  1010000 
 2849000   0.65356297   -5.0261491   -5.0261491   -4.0458056 0.0051425171   -5.0261491   0.98034348  1010000 
 2850000   0.65357297    -5.026331    -5.026331   -4.0459725 0.0060278913    -5.026331   0.98035848  1010000 
 2851000   0.65338765   -5.0277682   -5.0277682   -4.0476877 0.0019461606   -5.0277682   0.98008051  1010000 
 2852000   0.65338776   -5.0277769   -5.0277769   -4.0476962 0.0031674016   -5.0277769   0.98008068  1010000 
 2853000   0.65218755   -5.0264618   -5.0264618   -4.0481815 0.0062543076   -5.0264618   0.97828036  1010000 
 2854000   0.65328487   -5.0281504   -5.0281504   -4.0482241 0.0045493311   -5.0281504   0.97992633  1010000 
 2855000   0.65274827   -5.0281469   -5.0281469   -4.0490255 0.0062185964   -5.0281469   0.97912143  1010000 
 2856000   0.65316706   -5.0297354   -5.0297354   -4.0499857 0.0016980085   -5.0297354   0.97974962  1010000 
 2857000   0.65243699   -5.0289771   -5.0289771   -4.0503226 0.0056252355   -5.0289771   0.97865451  1010000 
 2858000   0.65326013    -5.030515    -5.030515   -4.0506258 0.00056609964    -5.030515   0.97988922  1010000 
 2859000    0.6517953   -5.0295755   -5.0295755   -4.0518835 0.0067227643   -5.0295755   0.97769199  1010000 
 2860000   0.65195845   -5.0298099   -5.0298099   -4.0518732 0.0062648704   -5.0298099    0.9779367  1010000 
 2861000   0.65215239   -5.0301761   -5.0301761   -4.0519485 0.0060779485   -5.0301761   0.97822761  1010000 
 2862000   0.65254209   -5.0315659   -5.0315659   -4.0527538 0.0033614023   -5.0315659   0.97881216  1010000 
 2863000   0.65244134   -5.0317117   -5.0317117   -4.0530506  0.003608465   -5.0317117   0.97866104  1010000 
 2864000   0.65238205   -5.0315676   -5.0315676   -4.0529955 0.0079740713   -5.0315676   0.97857211  1010000 
 2865000   0.65276937   -5.0328722   -5.0328722   -4.0537191 0.0042257225   -5.0328722   0.97915309  1010000 
 2866000   0.65269681   -5.0329128   -5.0329128   -4.0538686 0.0054304575   -5.0329128   0.97904424  1010000 
 2867000   0.65161829   -5.0319227   -5.0319227   -4.0544962  0.006885495   -5.0319227   0.97742646  1010000 
 2868000   0.65258094   -5.0333969   -5.0333969   -4.0545265 0.0028693335   -5.0333969   0.97887044  1010000 
 2869000   0.65235238   -5.0339243   -5.0339243   -4.0553967 0.0037494636   -5.0339243    0.9785276  1010000 
 2870000   0.65143304   -5.0325848   -5.0325848   -4.0554362  0.005816065   -5.0325848   0.97714859  1010000 
 2871000   0.65201556   -5.0344413   -5.0344413   -4.0564189 0.0033521633   -5.0344413   0.97802237  1010000 
 2872000   0.65098844   -5.0333666   -5.0333666   -4.0568849 0.0048467942   -5.0333666   0.97648169  1010000 
 2873000   0.65077276   -5.0333829   -5.0333829   -4.0572247  0.003200896   -5.0333829   0.97615817  1010000 
 2874000   0.65120515   -5.0341743   -5.0341743   -4.0573675 0.0022288842   -5.0341743   0.97680676  1010000 
 2875000   0.65167083   -5.0345467   -5.0345467   -4.0570414 0.0049125761   -5.0345467   0.97750527  1010000 
 2876000    0.6509211   -5.0343374   -5.0343374   -4.0579567 0.0053740614   -5.0343374   0.97638069  1010000 
 2877000   0.65130691   -5.0354884   -5.0354884    -4.058529 0.0012685354   -5.0354884    0.9769594  1010000 
 2878000   0.65053179   -5.0341894   -5.0341894   -4.0583926 0.0067780252   -5.0341894   0.97579671  1010000 
 2879000   0.65133465   -5.0358427   -5.0358427   -4.0588417 0.0038371167   -5.0358427     0.977001  1010000 
 2880000   0.65072364   -5.0357578   -5.0357578   -4.0596734 0.0082944404   -5.0357578   0.97608449  1010000 
 2881000   0.65106599   -5.0363529   -5.0363529   -4.0597549 0.0052249923   -5.0363529   0.97659801  1010000 
 2882000   0.65092864    -5.036955    -5.036955    -4.060563 0.0087413483    -5.036955     0.976392  1010000 
 2883000   0.65159139   -5.0382453   -5.0382453   -4.0608592 0.0031878305   -5.0382453   0.97738611  1010000 
 2884000   0.65124617    -5.038714    -5.038714   -4.0618457 0.0016226006    -5.038714   0.97686828  1010000 
 2885000   0.65091022   -5.0386934   -5.0386934    -4.062329 0.0033236116   -5.0386934   0.97636436  1010000 
 2886000   0.65076911   -5.0385001   -5.0385001   -4.0623474  0.002534626   -5.0385001   0.97615271  1010000 
 2887000    0.6510371   -5.0391104   -5.0391104   -4.0625558 0.0034474605   -5.0391104   0.97655468  1010000 
 2888000   0.65083001   -5.0387549   -5.0387549   -4.0625109 0.0056538635   -5.0387549   0.97624405  1010000 
 2889000   0.65087878   -5.0395396   -5.0395396   -4.0632224 0.0063285389   -5.0395396    0.9763172  1010000 
 2890000     0.650391   -5.0402908   -5.0402908   -4.0647053 0.0043746058   -5.0402908   0.97558554  1010000 
 2891000   0.65026804   -5.0401058   -5.0401058   -4.0647047  0.002116427   -5.0401058    0.9754011  1010000 
 2892000   0.64976209   -5.0393808   -5.0393808   -4.0647386 0.0045233182   -5.0393808   0.97464216  1010000 
 2893000   0.64958486   -5.0400174   -5.0400174    -4.065641 0.0018538452   -5.0400174   0.97437633  1010000 
 2894000   0.64985912   -5.0405888   -5.0405888    -4.065801 0.0019754841   -5.0405888   0.97478771  1010000 
 2895000   0.65059281   -5.0420747   -5.0420747   -4.0661865 0.0004321235   -5.0420747   0.97588824  1010000 
 2896000    0.6498823   -5.0419839   -5.0419839   -4.0671614 0.0033889024   -5.0419839   0.97482248  1010000 
 2897000   0.64985344    -5.042347    -5.042347   -4.0675678 0.0010470655    -5.042347   0.97477919  1010000 
 2898000    0.6498212   -5.0423223   -5.0423223   -4.0675914  0.005911322   -5.0423223   0.97473084  1010000 
 2899000   0.64981352   -5.0429035   -5.0429035   -4.0681842 0.0021331881   -5.0429035   0.97471931  1010000 
 2900000   0.64941956    -5.042817    -5.042817   -4.0686886 0.0037585975    -5.042817   0.97412838  1010000 
 2901000   0.64906105   -5.0427218   -5.0427218   -4.0691312 0.0069033458   -5.0427218   0.97359061  1010000 
 2902000   0.64984409   -5.0443322   -5.0443322    -4.069567  0.004921965   -5.0443322   0.97476516  1010000 
 2903000   0.64924818   -5.0436527   -5.0436527   -4.0697814   0.00662888   -5.0436527   0.97387131  1010000 
 2904000   0.64955513   -5.0446642   -5.0446642   -4.0703324 0.0063416443   -5.0446642   0.97433173  1010000 
 2905000    0.6499252   -5.0446627   -5.0446627   -4.0697759 0.0055301553   -5.0446627   0.97488684  1010000 
 2906000   0.64922349   -5.0443444   -5.0443444   -4.0705101  0.006773746   -5.0443444   0.97383426  1010000 
 2907000   0.64957124   -5.0448955   -5.0448955   -4.0705396 0.0053692148   -5.0448955    0.9743559  1010000 
 2908000   0.64823982    -5.044196    -5.044196   -4.0718372  0.007931501    -5.044196   0.97235877  1010000 
 2909000   0.64859155   -5.0449934   -5.0449934   -4.0721071 0.0067640641   -5.0449934   0.97288637  1010000 
 2910000   0.64850136   -5.0448491   -5.0448491    -4.072098 0.0039443814   -5.0448491   0.97275108  1010000 
 2911000   0.64851277   -5.0451069   -5.0451069   -4.0723387 0.0030530213   -5.0451069    0.9727682  1010000 
 2912000   0.64850731   -5.0454104   -5.0454104   -4.0726504 0.0030889298   -5.0454104      0.97276  1010000 
 2913000   0.64873246   -5.0467288   -5.0467288    -4.073631 -0.00063859688   -5.0467288   0.97309773  1010000 
 2914000   0.64853933   -5.0469491   -5.0469491   -4.0741411 -0.0015193422   -5.0469491   0.97280803  1010000 
 2915000   0.64800946   -5.0468018   -5.0468018   -4.0747885 -0.00069952583   -5.0468018   0.97201323  1010000 
 2916000   0.64808861   -5.0469818   -5.0469818   -4.0748498 0.0021400937   -5.0469818   0.97213195  1010000 
 2917000   0.64870127   -5.0481085   -5.0481085   -4.0750575 -6.7246897e-05   -5.0481085   0.97305095  1010000 
 2918000   0.64786298    -5.047799    -5.047799   -4.0760055 0.0058609529    -5.047799    0.9717935  1010000 
 2919000   0.64901552   -5.0494496   -5.0494496   -4.0759273 0.0023512029   -5.0494496   0.97352232  1010000 
 2920000   0.64860367   -5.0495685   -5.0495685   -4.0766639 0.0057388804   -5.0495685   0.97290455  1010000 
 2921000   0.64865087   -5.0501613   -5.0501613   -4.0771859 0.0078878679   -5.0501613   0.97297534  1010000 
 2922000   0.64847603    -5.050831    -5.050831   -4.0781179 0.0062539359    -5.050831   0.97271309  1010000 
 2923000   0.64841835   -5.0510269   -5.0510269   -4.0784003 0.0055347964   -5.0510269   0.97262656  1010000 
 2924000   0.64807331   -5.0513407   -5.0513407   -4.0792317 0.0073792366   -5.0513407     0.972109  1010000 
 2925000   0.64849522   -5.0521326   -5.0521326   -4.0793907 0.0035311708   -5.0521326   0.97274186  1010000 
 2926000   0.64774789   -5.0510141   -5.0510141   -4.0793933  0.008385962   -5.0510141   0.97162088  1010000 
 2927000   0.64774182   -5.0513298   -5.0513298    -4.079718 0.0067276675   -5.0513298   0.97161176  1010000 
 2928000   0.64730023   -5.0512408   -5.0512408   -4.0802914 0.0070521094   -5.0512408   0.97094939  1010000 
 2929000   0.64761283   -5.0519512   -5.0519512   -4.0805329 0.0030816672   -5.0519512   0.97141828  1010000 
 2930000   0.64733145   -5.0517492   -5.0517492    -4.080753 0.0022462395   -5.0517492   0.97099621  1010000 
 2931000   0.64762043    -5.052603    -5.052603   -4.0811733 -0.0012641372    -5.052603   0.97142969  1010000 
 2932000   0.64713619   -5.0517716   -5.0517716   -4.0810683 0.00052933933   -5.0517716   0.97070332  1010000 
 2933000   0.64685014   -5.0518472   -5.0518472    -4.081573 0.0026672266   -5.0518472   0.97027425  1010000 
 2934000   0.64657311   -5.0522224   -5.0522224   -4.0823636 0.0034254431   -5.0522224   0.96985871  1010000 
 2935000   0.64700382   -5.0536327   -5.0536327    -4.083128 -0.00011450283   -5.0536327   0.97050477  1010000 
 2936000   0.64712179   -5.0543053   -5.0543053   -4.0836235 -0.00018761492   -5.0543053   0.97068173  1010000 
 2937000   0.64604667   -5.0535585   -5.0535585   -4.0844895 0.0036279684   -5.0535585   0.96906904  1010000 
 2938000   0.64606352   -5.0543856   -5.0543856   -4.0852913 0.00057893908   -5.0543856   0.96909431  1010000 
 2939000   0.64659728   -5.0552942   -5.0552942   -4.0853993 0.0029555865   -5.0552942   0.96989496  1010000 
 2940000    0.6471272   -5.0565345   -5.0565345   -4.0858446 0.0042421146   -5.0565345   0.97068984  1010000 
 2941000   0.64717544   -5.0568159   -5.0568159   -4.0860537 0.0063189035   -5.0568159    0.9707622  1010000 
 2942000     0.647236   -5.0576853   -5.0576853   -4.0868322 0.0061489266   -5.0576853   0.97085304  1010000 
 2943000   0.64634248   -5.0568903   -5.0568903   -4.0873775 0.0093620869   -5.0568903   0.96951276  1010000 
 2944000   0.64690889   -5.0583073   -5.0583073   -4.0879449 0.0064091484   -5.0583073   0.97036238  1010000 
 2945000   0.64676353   -5.0582315   -5.0582315   -4.0880872 0.0064968434   -5.0582315   0.97014433  1010000 
 2946000   0.64662921   -5.0586086   -5.0586086   -4.0886657 0.0066448173   -5.0586086   0.96994285  1010000 
 2947000   0.64532371   -5.0574196   -5.0574196   -4.0894349    0.0101637   -5.0574196   0.96798461  1010000 
 2948000   0.64645812   -5.0591064   -5.0591064   -4.0894202 0.0042927168   -5.0591064   0.96968622  1010000 
 2949000   0.64615593   -5.0592011   -5.0592011   -4.0899682 0.0027604706   -5.0592011   0.96923293  1010000 
 2950000   0.64570001   -5.0588259   -5.0588259   -4.0902768 0.0025698522   -5.0588259   0.96854906  1010000 
 2951000   0.64620015   -5.0598272   -5.0598272   -4.0905279 0.0029480757   -5.0598272   0.96929927  1010000 
 2952000   0.64530087   -5.0583925   -5.0583925   -4.0904422 0.0028643546   -5.0583925   0.96795034  1010000 
 2953000   0.64527133   -5.0586925   -5.0586925   -4.0907865 0.0013022863   -5.0586925   0.96790604  1010000 
 2954000   0.64484101   -5.0588493   -5.0588493   -4.0915887 0.0028101033   -5.0588493   0.96726055  1010000 
 2955000   0.64464653   -5.0593879   -5.0593879   -4.0924191 0.00027026722   -5.0593879   0.96696883  1010000 
 2956000   0.64496697   -5.0592981   -5.0592981   -4.0918487 0.0016944184   -5.0592981   0.96744949  1010000 
 2957000   0.64467754   -5.0600052   -5.0600052   -4.0929899 0.0042007948   -5.0600052   0.96701535  1010000 
 2958000   0.64538718   -5.0609635   -5.0609635   -4.0928836 0.0015660756   -5.0609635   0.96807981  1010000 
 2959000   0.64504254   -5.0599704   -5.0599704   -4.0924075 0.0040162453   -5.0599704   0.96756286  1010000 
 2960000   0.64483812    -5.060929    -5.060929   -4.0936728 0.0031653885    -5.060929   0.96725622  1010000 
 2961000   0.64515213   -5.0621137   -5.0621137   -4.0943865 0.0035734156   -5.0621137   0.96772724  1010000 
 2962000   0.64511049   -5.0629437   -5.0629437   -4.0952789 0.0001004405   -5.0629437   0.96766478  1010000 
 2963000   0.64447796   -5.0626155   -5.0626155   -4.0958995 0.0026477037   -5.0626155   0.96671598  1010000 
 2964000   0.64488496    -5.063825    -5.063825   -4.0964985 0.0041012426    -5.063825   0.96732649  1010000 
 2965000   0.64490964   -5.0641029   -5.0641029   -4.0967394 0.0036224657   -5.0641029   0.96736351  1010000 
 2966000   0.64450675   -5.0638315   -5.0638315   -4.0970723 0.0078411486   -5.0638315   0.96675917  1010000 
 2967000   0.64432188   -5.0640645   -5.0640645   -4.0975826 0.0067417621   -5.0640645   0.96648187  1010000 
 2968000   0.64552828   -5.0661066   -5.0661066   -4.0978152 0.0044384159   -5.0661066   0.96829146  1010000 
 2969000   0.64433392    -5.065199    -5.065199   -4.0986991 0.0048227545    -5.065199   0.96649993  1010000 
 2970000   0.64476374   -5.0662602   -5.0662602   -4.0991155 0.0031552141   -5.0662602   0.96714466  1010000 
 2971000   0.64355818   -5.0644992   -5.0644992   -4.0991629 0.0072951032   -5.0644992   0.96533631  1010000 
 2972000   0.64390722   -5.0661343   -5.0661343   -4.1002744 0.0025484592   -5.0661343   0.96585987  1010000 
 2973000   0.64455605   -5.0675637   -5.0675637   -4.1007306 0.00072396007   -5.0675637   0.96683311  1010000 
 2974000   0.64415992   -5.0672435   -5.0672435   -4.1010046 -9.1603296e-05   -5.0672435   0.96623892  1010000 
 2975000   0.64381098   -5.0673444   -5.0673444   -4.1016288 0.00058610078   -5.0673444   0.96571551  1010000 
 2976000   0.64348634   -5.0674659   -5.0674659   -4.1022373 0.0021055564   -5.0674659   0.96522856  1010000 
 2977000   0.64286653   -5.0671596   -5.0671596   -4.1028608 0.0053472227   -5.0671596   0.96429884  1010000 
 2978000   0.64326725   -5.0679053   -5.0679053   -4.1030053 0.0014013017   -5.0679053   0.96489992  1010000 
 2979000   0.64319869   -5.0685901   -5.0685901    -4.103793 0.0013937538   -5.0685901   0.96479708  1010000 
 2980000   0.64326834    -5.068717    -5.068717   -4.1038154  0.002712257    -5.068717   0.96490156  1010000 
 2981000   0.64304449    -5.068766    -5.068766   -4.1042002 0.0011117644    -5.068766   0.96456577  1010000 
 2982000   0.64302625   -5.0689396   -5.0689396   -4.1044012 0.0019448165   -5.0689396   0.96453842  1010000 
 2983000   0.64341298   -5.0707979   -5.0707979   -4.1056794 0.0024925924   -5.0707979   0.96511851  1010000 
 2984000   0.64268076   -5.0703394   -5.0703394   -4.1063192 0.0054987428   -5.0703394   0.96402019  1010000 
 2985000   0.64246504   -5.0698499   -5.0698499   -4.1061533 0.0043886967   -5.0698499   0.96369661  1010000 
 2986000   0.64269775   -5.0702206   -5.0702206    -4.106175 0.0048094047   -5.0702206   0.96404566  1010000 
 2987000   0.64296137   -5.0713553   -5.0713553   -4.1069142 0.0048944126   -5.0713553   0.96444111  1010000 
 2988000   0.64361449   -5.0734335   -5.0734335   -4.1080128 0.00051820623   -5.0734335   0.96542077  1010000 
 2989000   0.64246217   -5.0727489   -5.0727489   -4.1090566 0.0061305879   -5.0727489    0.9636923  1010000 
 2990000   0.64309244   -5.0733336   -5.0733336   -4.1086959 0.0031796663   -5.0733336    0.9646377  1010000 
 2991000   0.64257935   -5.0722956   -5.0722956   -4.1084275 0.0087733012   -5.0722956   0.96386808  1010000 
 2992000   0.64240907   -5.0727801   -5.0727801   -4.1091675 0.0066525369   -5.0727801   0.96361265  1010000 
 2993000   0.64323502   -5.0741348   -5.0741348   -4.1092832 0.0056200134   -5.0741348   0.96485158  1010000 
 2994000   0.64328922   -5.0746999   -5.0746999   -4.1097671 0.0040894862   -5.0746999   0.96493288  1010000 
 2995000   0.64240868   -5.0738533   -5.0738533   -4.1102412 0.0087470607   -5.0738533   0.96361206  1010000 
 2996000   0.64211994   -5.0734467   -5.0734467   -4.1102677 0.0033992266   -5.0734467   0.96317896  1010000 
 2997000   0.64287744   -5.0754778   -5.0754778   -4.1111626 -0.0028918992   -5.0754778   0.96431521  1010000 
 2998000   0.64243227   -5.0750538   -5.0750538   -4.1114064 0.00010415681   -5.0750538   0.96364745  1010000 
 2999000   0.64262531   -5.0759953   -5.0759953   -4.1120583 -0.003546443   -5.0759953   0.96393701  1010000 
 3000000    0.6417664   -5.0749767   -5.0749767   -4.1123281 0.0012053615   -5.0749767   0.96264865  1010000 
Loop time of 15925.4 on 240 procs for 3000000 steps with 1010000 atoms

Performance: 81379.538 tau/day, 188.379 timesteps/s
99.1% CPU use with 240 MPI tasks x 1 OpenMP threads

MPI task timing breakdown:
Section |  min time  |  avg time  |  max time  |%varavg|  %CPU | %total
-----------------------------------------------------------------------
Pair    | 3558.5     | 5772.5     | 9693.3     |1325.8 |  99.1 | 36.25
Bond    | 0.93612    | 1.3591     | 3.4517     |  28.9 | 100.0 |  0.01
Neigh   | 1336.7     | 2079.3     | 3423.1     | 731.0 |  99.4 | 13.06
Comm    | 1826.8     | 7265.3     | 10147      |1628.7 |  99.0 | 45.62
Output  | 185.89     | 186.58     | 186.75     |   0.4 |  99.7 |  1.17
Modify  | 150.46     | 295.69     | 1132.9     |1333.2 |  99.5 |  1.86
Other   |            | 324.7      |            |       |       |  2.04

Nlocal:        4208.33 ave        4378 max        3194 min
Histogram: 2 3 5 5 4 1 0 0 88 132
Nghost:        5926.50 ave        6391 max        3752 min
Histogram: 17 3 20 0 0 0 0 0 0 200
Neighs:       168705.0 ave      179319 max       98943 min
Histogram: 4 8 6 2 0 0 0 0 34 186

Total # of neighbors = 40489149
Ave neighs/atom = 40.088266
Ave special neighs/atom = 0.0000000
Neighbor list builds = 300000
Dangerous builds = 296998

write_data	data.lj
System init for write_data ...
WARNING: Not all mixed pair coeffs generated from mixing. Use write_data with 'pair ij' option to store all pair coeffs. (src/write_data.cpp:312)
Total wall time: 4:25:37
