LAMMPS (24 Dec 2020)
OMP_NUM_THREADS environment is not set. Defaulting to 1 thread. (src/comm.cpp:94)
  using 1 OpenMP thread(s) per MPI task
#Read the equilibrated lj fluid and add nanocubes

units           lj
atom_style      full
#atom_modify     map array first cubes
dimension       3
boundary        p p f
pair_style      lj/cut/opt 2.5

variable        sigma           equal 1.0
variable        epsilon         equal 1.0
read_restart	restart.dat.4000000
Reading restart file ...
  restart file = 24 Dec 2020, LAMMPS = 24 Dec 2020
  restoring atom style full from restart
  orthogonal box = (0.0000000 0.0000000 0.0000000) to (80.000000 80.000000 160.00000)
  6 by 4 by 12 MPI processor grid
  restoring pair style lj/cut/opt from restart
  545227 atoms
Finding 1-2 1-3 1-4 neighbors ...
  special bond factors lj:    0        0        0       
  special bond factors coul:  0        0        0       
     0 = max # of 1-2 neighbors
     0 = max # of 1-3 neighbors
     0 = max # of 1-4 neighbors
     1 = max # of special neighbors
  special bonds CPU = 2.325 seconds
  read_restart CPU = 2.858 seconds

group		solvent type 1
472075 atoms in group solvent
group 		hull  type 2
28544 atoms in group hull
group 		dummy type 3
44608 atoms in group dummy

neighbor      0.4 bin
neigh_modify  exclude molecule/intra cubes


pair_modify   shift yes

pair_coeff    1 1 1.0 1.0 #solvent
pair_coeff    2 2 1.0 1.0 1.12 #np
pair_coeff    3 3 0.0 0.0 0.0 #dummy
pair_coeff    2 3 0.0 0.0 0.0 #np dummy
pair_coeff    1 2 1.0 1.0 #np solvent
pair_coeff    1 3 0.0 0.0 0.0 #dummy solvent


comm_modify   mode multi cutoff/multi 1 2.5 cutoff/multi 2 2.5 cutoff/multi 3 8.67



balance 	1.05 shift z 10 1.05
Balancing ...
Unused restart file global fix info:
  fix style: STORE, fix ID: msd_COMPUTE_STORE
Unused restart file peratom fix info:
  fix style: STORE, fix ID: bin1_COMPUTE_STORE
Neighbor list info ...
  update every 1 steps, delay 10 steps, check yes
  max neighbors/atom: 2000, page size: 100000
  master list distance cutoff = 2.9
  ghost atom cutoff = 8.67
  binsize = 1.45, bins = 56 56 111
  1 neighbor lists, perpetual/occasional/extra = 1 0 0
  (1) pair lj/cut/opt, perpetual
      attributes: half, newton on
      pair build: half/bin/newton
      stencil: half/bin/3d/newton
      bin: standard
 rebalancing time: 0.051 seconds
  iteration count = 4
  initial/final maximal load/proc = 2989.0000 2628.0000
  initial/final imbalance factor  = 1.5788506 1.3881631
  x cuts: 0.0000000 0.16666667 0.33333333 0.50000000 0.66666667 0.83333333 1.0000000
  y cuts: 0.0000000 0.25000000 0.50000000 0.75000000 1.0000000
  z cuts: 0.0000000 0.078125000 0.15104167 0.21354167 0.28645833 0.34895833 0.42187500 0.48958333 0.57291667 0.63541667 0.71875000 0.80208333 1.0000000

####################### WALLS ###########################

variable       epsilonWall equal 2*${epsilon}
variable       epsilonWall equal 2*1
variable       repulsive   equal   0.7147*${sigma}
variable       repulsive   equal   0.7147*1
variable       full	   equal   3*${sigma}
variable       full	   equal   3*1
region         lowWall block EDGE EDGE EDGE EDGE EDGE 2

fix            topWall all wall/lj93 zhi EDGE 	       ${epsilonWall} ${sigma} ${repulsive} units box
fix            topWall all wall/lj93 zhi EDGE 	       2 ${sigma} ${repulsive} units box
fix            topWall all wall/lj93 zhi EDGE 	       2 1 ${repulsive} units box
fix            topWall all wall/lj93 zhi EDGE 	       2 1 0.7147 units box
fix            lowSol solvent wall/lj93 zlo EDGE                ${epsilonWall} ${sigma} ${full} units box
fix            lowSol solvent wall/lj93 zlo EDGE                2 ${sigma} ${full} units box
fix            lowSol solvent wall/lj93 zlo EDGE                2 1 ${full} units box
fix            lowSol solvent wall/lj93 zlo EDGE                2 1 3 units box
fix 	       lowCub cubes wall/lj93 zlo EDGE                ${epsilonWall} ${sigma} ${repulsive} units box
fix 	       lowCub cubes wall/lj93 zlo EDGE                2 ${sigma} ${repulsive} units box
fix 	       lowCub cubes wall/lj93 zlo EDGE                2 1 ${repulsive} units box
fix 	       lowCub cubes wall/lj93 zlo EDGE                2 1 0.7147 units box


###################### COMPUTES ##########################

compute        bin1 solvent chunk/atom bin/1d z lower 1.0 units box


######################  FIXES ############################


fix             peclet solvent ave/chunk 10 10 10000 bin1 density/number norm                  none ave one file density.profile

fix              temp solvent ave/chunk 10 10 10000 bin1 temp norm                  none ave one file temp.profile

fix             1 cubes rigid/nve/small molecule
  create bodies CPU = 0.002 seconds
  64 rigid bodies with 73152 atoms
  6.9282032 = max distance from body owner to body atom

fix             2 solvent nve


## Thermostat
region          regthermo block EDGE EDGE EDGE EDGE 0 20
group           thermo dynamic solvent region regthermo every 1000
dynamic group thermo defined
fix             3 thermo langevin ${temp} ${temp} 10 156453
fix             3 thermo langevin 1.0 ${temp} 10 156453
fix             3 thermo langevin 1.0 1.0 10 156453

## Evaporation
region		regevap block EDGE EDGE EDGE EDGE 140 EDGE units box
fix		4 solvent evaporate ${evap} 1 regevap 156415
fix		4 solvent evaporate 85 1 regevap 156415


#### Load balancing

fix             bal all balance 1000 1.05 shift z 10 1.05

############### Diagnostics and computes ###################

compute        	com cubes          rigid/local   1 mol x y z
compute        	quat cubes         rigid/local   1 mol quatw quati quatj quatk

compute 	cc2 cubes 	   chunk/atom 	 molecule
compute 	msd cubes 	   msd/chunk 	 cc2

fix 		msd all ave/time  1 1 10000 c_msd[*] file dump.msd ave one mode vector

dump            1 all custom 500000 dump.lammpstrj id mol type x y z
dump		cubetrj hull custom 500000 cubes.lammpstrj id mol type x y z
dump            com cubes local 10000 dump.*.xyz c_com[*]
dump	        xyz hull xyz 100000 cubes.xyz
dump            quat cubes      local 10000 dump.*.quat c_quat[*]
#dump		mol cubes molfile 10000 mol.xyz xyz


dump            2 all image 10000 image.*.png type type zoom 1.6
dump_modify     2 pad 8
dump		image cubes image 10000 image_cubes.*.png type type zoom 1.6
dump_modify	image pad 8
dump            3 all movie 5000 movie.avi type type zoom 1.6
dump		4 cubes movie 5000 movie_cubes.avi type type zoom 1.6


thermo          1000
thermo_style    custom step temp epair evdwl etotal press pe ke atoms

restart         1000000 restart.dat
timestep        0.005
timer           full
New timer settings: style=full  mode=nosync  timeout=off

run 		20000000
Per MPI rank memory allocation (min/avg/max) = 14.65 | 18.54 | 23.98 Mbytes
Step Temp E_pair E_vdwl TotEng Press PotEng KinEng Atoms 
 4000000     1.000123   -2.9910719   -2.9910719   -1.6918147  0.074050593   -2.9910719    1.2992572   545227 
 4001000    1.0012191    -2.993044    -2.993044   -1.6923342  0.059013135    -2.993044    1.3007098   545215 
 4002000    1.0021894   -2.9934591   -2.9934591   -1.6914602  0.061113371   -2.9934591    1.3019989   545203 
 4003000    1.0021406   -2.9933535   -2.9933535   -1.6913893  0.068852768   -2.9933535    1.3019642   545191 
 4004000   0.99968408   -2.9910838   -2.9910838   -1.6922848  0.064575867   -2.9910838     1.298799   545180 
 4005000    1.0019673   -2.9933252   -2.9933252   -1.6915311   0.06483079   -2.9933252    1.3017941   545168 
 4006000    1.0014384   -2.9931525   -2.9931525   -1.6920169  0.064574046   -2.9931525    1.3011355   545156 
 4007000    1.0013111   -2.9925205   -2.9925205   -1.6915217  0.063336973   -2.9925205    1.3009988   545144 
 4008000    1.0023107   -2.9930227   -2.9930227   -1.6906989  0.069449402   -2.9930227    1.3023238   545133 
 4009000    1.0022217   -2.9926741   -2.9926741   -1.6904373  0.069946328   -2.9926741    1.3022368   545121 
 4010000    1.0020169   -2.9928183   -2.9928183   -1.6908189  0.054251896   -2.9928183    1.3019993   545109 
 4011000    1.0033189   -2.9941614   -2.9941614   -1.6904416  0.058800633   -2.9941614    1.3037198   545097 
 4012000    1.0029733   -2.9936173   -2.9936173   -1.6903178  0.064865269   -2.9936173    1.3032995   545085 
 4013000    1.0023115   -2.9923312   -2.9923312   -1.6898653   0.07072417   -2.9923312    1.3024658   545074 
 4014000    1.0020451   -2.9920435   -2.9920435   -1.6898952   0.06420482   -2.9920435    1.3021483   545062 
 4015000    1.0019044   -2.9931022   -2.9931022   -1.6911081  0.067653694   -2.9931022    1.3019941   545050 
 4016000    1.0019654   -2.9916236   -2.9916236   -1.6895216  0.067114061   -2.9916236     1.302102   545038 
 4017000    1.0022729   -2.9919258   -2.9919258   -1.6893979  0.064446337   -2.9919258    1.3025279   545027 
 4018000    1.0030818   -2.9927357   -2.9927357   -1.6891278  0.071280208   -2.9927357    1.3036079   545015 
 4019000    1.0012343   -2.9904493   -2.9904493   -1.6892138  0.065169759   -2.9904493    1.3012355   545003 
 4020000    1.0019534   -2.9934338   -2.9934338    -1.691235  0.066256242   -2.9934338    1.3021987   544991 
 4021000    1.0032095   -2.9924742   -2.9924742   -1.6886167  0.068358182   -2.9924742    1.3038575   544980 
 4022000    1.0038858   -2.9937593   -2.9937593    -1.688994  0.066209863   -2.9937593    1.3047653   544968 
 4023000    1.0029798   -2.9931322   -2.9931322   -1.6895158  0.074348154   -2.9931322    1.3036165   544956 
 4024000    1.0020362   -2.9912812   -2.9912812   -1.6888625  0.068268594   -2.9912812    1.3024187   544944 
 4025000     1.001749   -2.9907118   -2.9907118   -1.6886401  0.060304207   -2.9907118    1.3020717   544933 
 4026000    1.0006417   -2.9913989   -2.9913989   -1.6907379  0.078638249   -2.9913989    1.3006611   544921 
 4027000    1.0015365   -2.9929846   -2.9929846   -1.6911319   0.06599007   -2.9929846    1.3018527   544909 
 4028000    1.0016978   -2.9923969   -2.9923969   -1.6903058  0.065916362   -2.9923969    1.3020911   544897 
 4029000    1.0003193    -2.991949    -2.991949   -1.6916212  0.069441517    -2.991949    1.3003278   544885 
 4030000    1.0010283   -2.9925534   -2.9925534   -1.6912776  0.063703164   -2.9925534    1.3012758   544874 
 4031000     1.000501   -2.9919759   -2.9919759    -1.691357  0.069132919   -2.9919759    1.3006189   544862 
 4032000    1.0015817   -2.9940487   -2.9940487   -1.6919961  0.062102169   -2.9940487    1.3020526   544850 
 4033000    1.0005979   -2.9917951   -2.9917951   -1.6909927  0.066890005   -2.9917951    1.3008023   544838 
 4034000    1.0003889   -2.9921097   -2.9921097    -1.691553  0.060498824   -2.9921097    1.3005567   544827 
 4035000    1.0002882   -2.9913633   -2.9913633   -1.6909088  0.058290982   -2.9913633    1.3004546   544815 
 4036000     1.001536   -2.9923894   -2.9923894    -1.690284  0.071590806   -2.9923894    1.3021054   544803 
 4037000    1.0003663   -2.9914065   -2.9914065   -1.6907931  0.059036006   -2.9914065    1.3006134   544791 
 4038000   0.99974264   -2.9911148   -2.9911148    -1.691286  0.056769742   -2.9911148    1.2998288   544780 
 4039000    0.9989064    -2.990475    -2.990475   -1.6917049  0.067841365    -2.990475    1.2987701   544768 
 4040000    1.0001768   -2.9913189   -2.9913189   -1.6908684  0.057857575   -2.9913189    1.3004505   544756 
 4041000    1.0010739   -2.9924435   -2.9924435   -1.6907978  0.071260112   -2.9924435    1.3016457   544744 
 4042000    1.0007708   -2.9934118   -2.9934118    -1.692134  0.067534461   -2.9934118    1.3012778   544733 
 4043000    1.0011369   -2.9932159   -2.9932159   -1.6914334  0.057976119   -2.9932159    1.3017825   544721 
 4044000     1.001739   -2.9948267   -2.9948267   -1.6922326   0.06670511   -2.9948267    1.3025941   544709 
 4045000   0.99961449     -2.99253     -2.99253   -1.6926698  0.058793367     -2.99253    1.2998602   544697 
 4046000    1.0014321    -2.994084    -2.994084   -1.6918317    0.0651605    -2.994084    1.3022524   544685 
 4047000    1.0009614   -2.9933545   -2.9933545   -1.6916878  0.069424863   -2.9933545    1.3016666   544674 
 4048000    1.0015183   -2.9945396   -2.9945396   -1.6921202   0.06001338   -2.9945396    1.3024195   544662 
 4049000    1.0009508   -2.9934723   -2.9934723   -1.6917621  0.073811808   -2.9934723    1.3017102   544650 
 4050000    1.0013184   -2.9941503   -2.9941503   -1.6919334   0.07084495   -2.9941503    1.3022169   544638 
 4051000   0.99955105   -2.9936433   -2.9936433   -1.6936986  0.073840076   -2.9936433    1.2999447   544627 
 4052000    1.0004146   -2.9954231   -2.9954231   -1.6943266  0.065569281   -2.9954231    1.3010965   544615 
 4053000    1.0007827   -2.9944533   -2.9944533   -1.6928494  0.075910369   -2.9944533    1.3016039   544603 
 4054000    1.0005123   -2.9952231   -2.9952231   -1.6939422  0.060386724   -2.9952231    1.3012809   544591 
 4055000    1.0006511   -2.9955793   -2.9955793   -1.6940916  0.062108601   -2.9955793    1.3014876   544580 
 4056000    1.0004237   -2.9949264   -2.9949264   -1.6937058  0.074029894   -2.9949264    1.3012206   544568 
 4057000      1.00022   -2.9959959   -2.9959959   -1.6950116  0.067560798   -2.9959959    1.3009843   544556 
 4058000    1.0007577   -2.9952432   -2.9952432   -1.6935307  0.063891075   -2.9952432    1.3017125   544544 
 4059000    1.0021745    -2.997774    -2.997774   -1.6941924   0.06418766    -2.997774    1.3035816   544533 
 4060000    1.0008357   -2.9963595   -2.9963595   -1.6944906  0.065012454   -2.9963595    1.3018689   544521 
 4061000    1.0005939    -2.996574    -2.996574    -1.694991  0.070645778    -2.996574     1.301583   544509 
 4062000    1.0013314   -2.9969579   -2.9969579   -1.6943868  0.063751218   -2.9969579    1.3025711   544497 
 4063000    1.0002575    -2.996332    -2.996332   -1.6951292    0.0733349    -2.996332    1.3012027   544485 
 4064000    1.0019641   -2.9979432   -2.9979432   -1.6944941  0.066219951   -2.9979432    1.3034491   544474 
 4065000    1.0015157   -2.9977229   -2.9977229   -1.6948283  0.061434486   -2.9977229    1.3028946   544462 
 4066000    1.0009183   -2.9969014   -2.9969014   -1.6947553  0.068801847   -2.9969014    1.3021461   544450 
 4067000    1.0015481   -2.9976964   -2.9976964   -1.6947023  0.059590163   -2.9976964    1.3029941   544438 
 4068000    1.0007755   -2.9973739   -2.9973739   -1.6953586  0.055941813   -2.9973739    1.3020153   544427 
 4069000   0.99989703   -2.9967421   -2.9967421    -1.695841  0.060410537   -2.9967421    1.3009011   544415 
 4070000    1.0010648   -2.9971337   -2.9971337   -1.6946846  0.068241766   -2.9971337    1.3024491   544403 
 4071000   0.99909883   -2.9957086   -2.9957086   -1.6957887  0.069793316   -2.9957086    1.2999199   544391 
 4072000    1.0006972   -2.9973781   -2.9973781   -1.6953523  0.063836819   -2.9973781    1.3020259   544380 
 4073000    1.0012602   -2.9977153   -2.9977153   -1.6949282  0.062813762   -2.9977153    1.3027871   544368 
 4074000   0.99978689   -2.9961262   -2.9961262   -1.6952275  0.057781775   -2.9961262    1.3008988   544356 
 4075000   0.99928427   -2.9965837   -2.9965837   -1.6963103  0.076847675   -2.9965837    1.3002734   544344 
 4076000   0.99909058   -2.9964832   -2.9964832   -1.6964355  0.073875585   -2.9964832    1.3000477   544333 
 4077000    1.0000733   -2.9972974   -2.9972974   -1.6959424  0.062998781   -2.9972974    1.3013551   544321 
 4078000   0.99950686   -2.9963443   -2.9963443   -1.6956976  0.058281216   -2.9963443    1.3006467   544309 
 4079000    1.0000541   -2.9960993   -2.9960993   -1.6947119  0.063918186   -2.9960993    1.3013874   544297 
 4080000    1.0018815    -2.997578    -2.997578   -1.6937838  0.067412037    -2.997578    1.3037942   544285 
 4081000    1.0003721   -2.9955799   -2.9955799   -1.6937236  0.071999637   -2.9955799    1.3018563   544274 
 4082000    1.0007572   -2.9964311   -2.9964311   -1.6940449  0.060629746   -2.9964311    1.3023862   544262 
 4083000   0.99846261   -2.9934295   -2.9934295   -1.6940008  0.068781558   -2.9934295    1.2994287   544250 
 4084000    1.0011757   -2.9966158   -2.9966158   -1.6936275  0.064243253   -2.9966158    1.3029883   544238 
 4085000    1.0009665   -2.9956482   -2.9956482   -1.6929058  0.067332062   -2.9956482    1.3027423   544227 
 4086000    1.0006985   -2.9955559   -2.9955559   -1.6931337  0.066123578   -2.9955559    1.3024222   544215 
 4087000    1.0000587   -2.9944075   -2.9944075   -1.6927891  0.059999409   -2.9944075    1.3016184   544203 
 4088000    1.0006116   -2.9957722   -2.9957722   -1.6934056  0.064262389   -2.9957722    1.3023666   544191 
 4089000   0.99920294    -2.993819    -2.993819   -1.6932595  0.065223907    -2.993819    1.3005595   544180 
 4090000     1.000534   -2.9947746   -2.9947746   -1.6924539  0.061017052   -2.9947746    1.3023206   544168 
 4091000   0.99984744    -2.995066    -2.995066   -1.6936103  0.062594767    -2.995066    1.3014557   544156 
 4092000   0.99983581   -2.9955144   -2.9955144   -1.6940451  0.065674535   -2.9955144    1.3014693   544144 
 4093000   0.99779262   -2.9934034   -2.9934034   -1.6945674  0.060990057   -2.9934034     1.298836   544133 
 4094000    0.9972253   -2.9935084   -2.9935084   -1.6953824  0.065236157   -2.9935084    1.2981261   544121 
 4095000   0.99668549   -2.9921343   -2.9921343   -1.6946823  0.057797539   -2.9921343     1.297452   544109 
 4096000   0.99913323   -2.9945967   -2.9945967   -1.6939296  0.058959426   -2.9945967    1.3006671   544097 
 4097000   0.99903056   -2.9948094   -2.9948094   -1.6942473    0.0684531   -2.9948094    1.3005621   544085 
 4098000   0.99826786   -2.9936081   -2.9936081   -1.6940126  0.060417572   -2.9936081    1.2995955   544074 
 4099000   0.99904054   -2.9949759   -2.9949759   -1.6943458  0.069516779   -2.9949759    1.3006301   544062 
 4100000   0.99952022   -2.9961919   -2.9961919   -1.6949086  0.058377164   -2.9961919    1.3012833   544050 
 4101000   0.99934206   -2.9954507   -2.9954507   -1.6943707  0.057541266   -2.9954507      1.30108   544038 
 4102000   0.99815804   -2.9936395   -2.9936395   -1.6940747  0.068715671   -2.9936395    1.2995648   544027 
 4103000    0.9976561   -2.9940306   -2.9940306   -1.6950907  0.057385249   -2.9940306    1.2989399   544015 
 4104000   0.99679037   -2.9928874   -2.9928874    -1.695046  0.065906435   -2.9928874    1.2978414   544003 
 4105000   0.99708367   -2.9933857   -2.9933857   -1.6951338  0.062276252   -2.9933857    1.2982519   543991 
 4106000   0.99854904   -2.9948226   -2.9948226   -1.6946364  0.066627782   -2.9948226    1.3001862   543980 
 4107000   0.99887351   -2.9950439   -2.9950439   -1.6944065  0.063896989   -2.9950439    1.3006374   543968 
 4108000   0.99930691   -2.9948361   -2.9948361   -1.6936057  0.063874557   -2.9948361    1.3012304   543956 
 4109000    1.0010024   -2.9967708   -2.9967708   -1.6933039  0.061950448   -2.9967708    1.3034669   543944 
 4110000   0.99942451    -2.994732    -2.994732   -1.6932935  0.058216509    -2.994732    1.3014386   543933 
 4111000   0.99876066   -2.9942717   -2.9942717   -1.6936689  0.067180368   -2.9942717    1.3006028   543921 
 4112000   0.99908179   -2.9950908   -2.9950908   -1.6940412  0.068575834   -2.9950908    1.3010497   543909 
 4113000   0.99929942    -2.995121    -2.995121   -1.6937592   0.05977918    -2.995121    1.3013618   543897 
 4114000    1.0005032   -2.9958316   -2.9958316   -1.6928734  0.064422708   -2.9958316    1.3029582   543885 
 4115000   0.99902829   -2.9954618   -2.9954618   -1.6943981  0.065384433   -2.9954618    1.3010637   543874 
 4116000   0.99762267    -2.994421    -2.994421   -1.6951592  0.069278138    -2.994421    1.2992618   543862 
 4117000   0.99732501   -2.9943524   -2.9943524   -1.6954496  0.068132389   -2.9943524    1.2989028   543850 
 4118000   0.99806013   -2.9951362   -2.9951362   -1.6952473   0.06185335   -2.9951362    1.2998889   543838 
 4119000   0.99708507   -2.9944516   -2.9944516   -1.6958064  0.054742584   -2.9944516    1.2986452   543827 
 4120000   0.99765856   -2.9939834   -2.9939834   -1.6945625  0.063905153   -2.9939834    1.2994209   543815 
 4121000   0.99805422     -2.99535     -2.99535   -1.6953851  0.067787952     -2.99535    1.2999649   543803 
 4122000   0.99649773   -2.9946945   -2.9946945   -1.6967283  0.059110052   -2.9946945    1.2979662   543791 
 4123000   0.99703135   -2.9944188   -2.9944188   -1.6957313  0.059878445   -2.9944188    1.2986875   543780 
 4124000   0.99809882   -2.9949839   -2.9949839   -1.6948773  0.069797796   -2.9949839    1.3001066   543768 
 4125000   0.99919657   -2.9956361   -2.9956361   -1.6940709  0.063769154   -2.9956361    1.3015653   543756 
 4126000    0.9989859   -2.9945135   -2.9945135   -1.6931939  0.066260352   -2.9945135    1.3013196   543744 
 4127000   0.99795277   -2.9937547   -2.9937547   -1.6937546  0.065520729   -2.9937547    1.3000001   543733 
 4128000   0.99931897   -2.9957974   -2.9957974   -1.6939889  0.070224769   -2.9957974    1.3018085   543721 
 4129000   0.99997195   -2.9968914   -2.9968914   -1.6942035   0.05926534   -2.9968914    1.3026879   543709 
 4130000   0.99863671   -2.9951438   -2.9951438   -1.6941666  0.069485433   -2.9951438    1.3009772   543697 
 4131000   0.99842271   -2.9956493   -2.9956493   -1.6949223  0.067171865   -2.9956493    1.3007271   543685 
 4132000   0.99846968   -2.9966568   -2.9966568   -1.6958422  0.066701349   -2.9966568    1.3008146   543674 
 4133000   0.99845711   -2.9965674   -2.9965674   -1.6957405  0.059179188   -2.9965674    1.3008269   543662 
 4134000   0.99876763   -2.9973222   -2.9973222    -1.696062  0.063002047   -2.9973222    1.3012602   543650 
 4135000   0.99856939   -2.9963347   -2.9963347   -1.6953041  0.056518061   -2.9963347    1.3010306   543638 
 4136000   0.99735107   -2.9950173   -2.9950173   -1.6955477  0.061771186   -2.9950173    1.2994696   543627 
 4137000   0.99734443   -2.9953831   -2.9953831   -1.6958935  0.073775125   -2.9953831    1.2994896   543615 
 4138000   0.99692731   -2.9946024   -2.9946024   -1.6956276  0.066833945   -2.9946024    1.2989748   543603 
 4139000   0.99735311    -2.995375    -2.995375   -1.6958167  0.061793945    -2.995375    1.2995583   543591 
 4140000   0.99792597   -2.9968623   -2.9968623   -1.6965312  0.061772062   -2.9968623    1.3003311   543580 
 4141000   0.99732922   -2.9963422   -2.9963422     -1.69676  0.053805317   -2.9963422    1.2995822   543568 
 4142000   0.99749975   -2.9957404   -2.9957404   -1.6959073  0.058043688   -2.9957404    1.2998331   543556 
 4143000   0.99783146   -2.9966886   -2.9966886   -1.6963946   0.06673217   -2.9966886     1.300294   543544 
 4144000   0.99706531   -2.9956578   -2.9956578   -1.6963359  0.062817683   -2.9956578    1.2993219   543533 
 4145000   0.99986913   -2.9986618   -2.9986618   -1.6956573  0.060010798   -2.9986618    1.3030045   543521 
 4146000   0.99775236   -2.9944958   -2.9944958   -1.6942211  0.076243295   -2.9944958    1.3002747   543509 
 4147000    0.9981634   -2.9959982   -2.9959982   -1.6951591  0.060641557   -2.9959982    1.3008391   543497 
 4148000   0.99661958   -2.9945185   -2.9945185   -1.6956627  0.065628831   -2.9945185    1.2988558   543485 
 4149000   0.99648569   -2.9940884   -2.9940884   -1.6953808  0.064201285   -2.9940884    1.2987076   543474 
 4150000   0.99703454    -2.994982    -2.994982   -1.6955304  0.069604915    -2.994982    1.2994516   543462 
 4151000   0.99720023   -2.9944383   -2.9944383   -1.6947421  0.065995777   -2.9944383    1.2996962   543450 
 4152000   0.99599325   -2.9932278   -2.9932278    -1.695076   0.06408474   -2.9932278    1.2981518   543438 
 4153000   0.99751316   -2.9946479   -2.9946479   -1.6944888  0.066286253   -2.9946479    1.3001591   543427 
 4154000   0.99709612   -2.9943144   -2.9943144   -1.6946702  0.058211674   -2.9943144    1.2996442   543415 
 4155000   0.99740496   -2.9946597   -2.9946597   -1.6945842  0.068704914   -2.9946597    1.3000755   543403 
 4156000   0.99811831    -2.996375    -2.996375    -1.695341  0.055348556    -2.996375     1.301034   543391 
 4157000   0.99647147   -2.9946501   -2.9946501   -1.6957364  0.053516452   -2.9946501    1.2989137   543380 
 4158000    0.9986628   -2.9958599   -2.9958599    -1.694061  0.059122309   -2.9958599    1.3017989   543368 
 4159000   0.99816965   -2.9946032   -2.9946032   -1.6934184  0.069065575   -2.9946032    1.3011848   543356 
 4160000   0.99787555   -2.9945142   -2.9945142   -1.6936841  0.064952444   -2.9945142    1.3008301   543344 
 4161000   0.99700472   -2.9943134   -2.9943134   -1.6945922  0.060579032   -2.9943134    1.2997212   543333 
 4162000   0.99678726   -2.9935817   -2.9935817   -1.6941153  0.064397273   -2.9935817    1.2994664   543321 
 4163000   0.99688003   -2.9935161   -2.9935161      -1.6939  0.063138831   -2.9935161    1.2996161   543309 
 4164000   0.99706856   -2.9945332   -2.9945332   -1.6946426  0.056778421   -2.9945332    1.2998906   543297 
 4165000   0.99685593   -2.9944481   -2.9944481    -1.694806  0.062247034   -2.9944481    1.2996421   543285 
 4166000   0.99655907   -2.9934637   -2.9934637   -1.6941823  0.060708505   -2.9934637    1.2992814   543274 
 4167000    0.9960086   -2.9931895   -2.9931895   -1.6945972  0.072907994   -2.9931895    1.2985924   543262 
 4168000   0.99690889   -2.9955523   -2.9955523   -1.6957574  0.057358965   -2.9955523    1.2997949   543250 
 4169000   0.99724441   -2.9970608   -2.9970608   -1.6967997  0.053743774   -2.9970608     1.300261   543238 
 4170000   0.99625016   -2.9957849   -2.9957849   -1.6967939  0.067106884   -2.9957849     1.298991   543227 
 4171000    0.9966962   -2.9955804   -2.9955804   -1.6959791  0.059539776   -2.9955804    1.2996013   543215 
 4172000   0.99569904   -2.9950867   -2.9950867   -1.6967569  0.056995487   -2.9950867    1.2983298   543203 
 4173000    0.9950582   -2.9941317   -2.9941317   -1.6966089  0.065515362   -2.9941317    1.2975228   543191 
 4174000   0.99541988   -2.9953564   -2.9953564   -1.6973357  0.063517157   -2.9953564    1.2980207   543180 
 4175000   0.99507462   -2.9947603   -2.9947603   -1.6971611  0.062670834   -2.9947603    1.2975992   543168 
 4176000   0.99621567   -2.9967745   -2.9967745   -1.6976587  0.065285439   -2.9967745    1.2991158   543156 
 4177000   0.99490382   -2.9952702   -2.9952702   -1.6978364  0.064031643   -2.9952702    1.2974338   543144 
 4178000   0.99643919   -2.9965889   -2.9965889   -1.6971266  0.065192676   -2.9965889    1.2994623   543133 
 4179000   0.99565683    -2.995677    -2.995677   -1.6972063  0.064939414    -2.995677    1.2984707   543121 
 4180000   0.99674399   -2.9966667   -2.9966667   -1.6967494  0.059649237   -2.9966667    1.2999173   543109 
 4181000   0.99620729   -2.9960668   -2.9960668   -1.6968208   0.06632248   -2.9960668     1.299246   543097 
 4182000   0.99579517    -2.995486    -2.995486   -1.6967488  0.063532433    -2.995486    1.2987372   543085 
 4183000   0.99653732   -2.9957993   -2.9957993   -1.6960679  0.062906296   -2.9957993    1.2997315   543074 
 4184000   0.99550682   -2.9960463   -2.9960463   -1.6976302  0.065849837   -2.9960463    1.2984161   543062 
 4185000   0.99489795   -2.9957955   -2.9957955   -1.6981448    0.0637604   -2.9957955    1.2976507   543050 
 4186000   0.99735224   -2.9981855   -2.9981855   -1.6973049  0.069657879   -2.9981855    1.3008806   543038 
 4187000    0.9961631   -2.9974609   -2.9974609    -1.698105  0.057645959   -2.9974609    1.2993559   543027 
 4188000   0.99583694   -2.9972702   -2.9972702    -1.698311  0.067526454   -2.9972702    1.2989591   543015 
 4189000   0.99464414    -2.996671    -2.996671   -1.6992391  0.071088672    -2.996671    1.2974319   543003 
 4190000   0.99590481   -2.9979163   -2.9979163   -1.6988112  0.069000224   -2.9979163    1.2991051   542991 
 4191000   0.99527782   -2.9970027   -2.9970027   -1.6986892   0.06638709   -2.9970027    1.2983135   542980 
 4192000   0.99410451   -2.9960926   -2.9960926    -1.699281  0.061632228   -2.9960926    1.2968116   542968 
 4193000   0.99487207   -2.9961361   -2.9961361   -1.6982945   0.05916257   -2.9961361    1.2978416   542956 
 4194000   0.99562072   -2.9959481   -2.9959481   -1.6971012  0.056064695   -2.9959481    1.2988469   542944 
 4195000   0.99549723   -2.9959707   -2.9959707   -1.6972586  0.062057107   -2.9959707    1.2987121   542933 
 4196000   0.99497783   -2.9942438   -2.9942438   -1.6961806  0.061593732   -2.9942438    1.2980632   542921 
 4197000   0.99499256   -2.9951645   -2.9951645   -1.6970534  0.061171072   -2.9951645    1.2981111   542909 
 4198000   0.99593447   -2.9970855   -2.9970855   -1.6977168  0.058219947   -2.9970855    1.2993687   542897 
 4199000   0.99601241   -2.9967721   -2.9967721    -1.697273  0.068383905   -2.9967721    1.2994991   542885 
 4200000   0.99676331   -2.9960651   -2.9960651   -1.6955599   0.06898677   -2.9960651    1.3005052   542874 
 4201000    0.9966758   -2.9965079   -2.9965079   -1.6960882  0.057940196   -2.9965079    1.3004197   542862 
 4202000   0.99691733   -2.9966653   -2.9966653   -1.6959017  0.073338098   -2.9966653    1.3007636   542850 
 4203000   0.99779852   -2.9965713   -2.9965713   -1.6946292  0.064508119   -2.9965713    1.3019422   542838 
 4204000   0.99763132   -2.9955867   -2.9955867   -1.6938363  0.065150547   -2.9955867    1.3017504   542827 
 4205000   0.99629056   -2.9934394   -2.9934394   -1.6934098  0.073852871   -2.9934394    1.3000297   542815 
 4206000   0.99758009   -2.9956874   -2.9956874   -1.6939463  0.066794053   -2.9956874    1.3017411   542803 
 4207000   0.99700152   -2.9945761   -2.9945761   -1.6935612  0.064349201   -2.9945761    1.3010149   542791 
 4208000   0.99776514    -2.995522    -2.995522   -1.6934842   0.06357219    -2.995522    1.3020377   542780 
 4209000   0.99667765   -2.9944706   -2.9944706   -1.6938232  0.060675382   -2.9944706    1.3006474   542768 
 4210000   0.99637818   -2.9940056   -2.9940056   -1.6937202  0.061129806   -2.9940056    1.3002853   542756 
 4211000    0.9952371   -2.9921309   -2.9921309    -1.693306  0.068064823   -2.9921309    1.2988249   542744 
 4212000    0.9952239   -2.9930446   -2.9930446   -1.6942106   0.06168268   -2.9930446     1.298834   542733 
 4213000   0.99547474    -2.994203    -2.994203   -1.6950129  0.060420516    -2.994203    1.2991901   542721 
 4214000   0.99563862   -2.9933002   -2.9933002   -1.6938675  0.060373932   -2.9933002    1.2994327   542709 
 4215000   0.99385288   -2.9909689   -2.9909689   -1.6938381  0.067958721   -2.9909689    1.2971308   542697 
 4216000   0.99349853   -2.9912186   -2.9912186   -1.6945217  0.067969386   -2.9912186     1.296697   542685 
 4217000   0.99496475   -2.9935406   -2.9935406   -1.6949036  0.065854706   -2.9935406     1.298637   542674 
 4218000   0.99414708   -2.9912028   -2.9912028   -1.6936044  0.066850177   -2.9912028    1.2975984   542662 
 4219000   0.99451207   -2.9919113   -2.9919113   -1.6938077  0.066145401   -2.9919113    1.2981035   542650 
 4220000   0.99547245   -2.9942135   -2.9942135   -1.6948277  0.062012658   -2.9942135    1.2993858   542638 
 4221000   0.99517704   -2.9930746   -2.9930746    -1.694048  0.052340635   -2.9930746    1.2990266   542627 
 4222000   0.99540599   -2.9927958   -2.9927958   -1.6934416  0.062358693   -2.9927958    1.2993541   542615 
 4223000   0.99501302   -2.9910961   -2.9910961   -1.6922262  0.056230446   -2.9910961    1.2988699   542603 
 4224000   0.99475347   -2.9906699   -2.9906699   -1.6921101  0.065016876   -2.9906699    1.2985598   542591 
 4225000   0.99481358    -2.992499    -2.992499   -1.6938344  0.059112532    -2.992499    1.2986646   542580 
 4226000   0.99558561   -2.9927484   -2.9927484   -1.6930472  0.064562547   -2.9927484    1.2997012   542568 
 4227000   0.99423791   -2.9915219   -2.9915219   -1.6935514  0.058971263   -2.9915219    1.2979705   542556 
 4228000   0.99498483   -2.9917186   -2.9917186   -1.6927442   0.05891267   -2.9917186    1.2989743   542544 
 4229000   0.99502091   -2.9907649   -2.9907649   -1.6917171    0.0604144   -2.9907649    1.2990478   542533 
 4230000   0.99430507   -2.9899557   -2.9899557   -1.6918138   0.06515983   -2.9899557    1.2981419   542521 
 4231000   0.99482698   -2.9917759   -2.9917759   -1.6929238  0.071228014   -2.9917759    1.2988521   542509 
 4232000   0.99410736    -2.990626    -2.990626   -1.6926848  0.067404107    -2.990626    1.2979412   542497 
 4233000   0.99523605   -2.9923898   -2.9923898   -1.6929462  0.057949714   -2.9923898    1.2994436   542485 
 4234000   0.99597517   -2.9929147   -2.9929147   -1.6924796  0.066383843   -2.9929147     1.300435   542474 
 4235000   0.99546185   -2.9925412   -2.9925412   -1.6927477  0.061995827   -2.9925412    1.2997936   542462 
 4236000   0.99341782    -2.991218    -2.991218   -1.6940646  0.066865562    -2.991218    1.2971533   542450 
 4237000   0.99272229   -2.9902113   -2.9902113   -1.6939375  0.071625711   -2.9902113    1.2962738   542438 
 4238000   0.99440886   -2.9932891   -2.9932891   -1.6947867  0.056236486   -2.9932891    1.2985024   542427 
 4239000   0.99447851   -2.9936891   -2.9936891    -1.695067  0.064832022   -2.9936891    1.2986221   542415 
 4240000   0.99322342   -2.9919305   -2.9919305   -1.6949186  0.061369628   -2.9919305    1.2970119   542403 
 4241000   0.99343567   -2.9914619   -2.9914619   -1.6941442  0.066703079   -2.9914619    1.2973177   542391 
 4242000   0.99371692   -2.9921328   -2.9921328   -1.6944214  0.058504598   -2.9921328    1.2977113   542380 
 4243000   0.99344203   -2.9925106   -2.9925106   -1.6951295   0.06136004   -2.9925106    1.2973811   542368 
 4244000   0.99217799   -2.9925354   -2.9925354   -1.6967765  0.057248009   -2.9925354     1.295759   542356 
 4245000   0.99286793   -2.9927519   -2.9927519   -1.6960632  0.063637329   -2.9927519    1.2966887   542344 
 4246000    0.9943219   -2.9952499   -2.9952499    -1.696636   0.05966064   -2.9952499    1.2986139   542333 
 4247000   0.99318257   -2.9930964   -2.9930964   -1.6959418  0.056825297   -2.9930964    1.2971546   542321 
 4248000   0.99187214   -2.9919452   -2.9919452   -1.6964734   0.06277571   -2.9919452    1.2954718   542309 
 4249000    0.9937384   -2.9948542   -2.9948542   -1.6969162  0.056890084   -2.9948542     1.297938   542297 
 4250000   0.99231139    -2.992701    -2.992701   -1.6965981  0.062485706    -2.992701    1.2961029   542285 
 4251000    0.9925803   -2.9923123   -2.9923123    -1.695832  0.071908524   -2.9923123    1.2964804   542274 
 4252000   0.99371772   -2.9937093   -2.9937093   -1.6957146  0.063925182   -2.9937093    1.2979948   542262 
 4253000   0.99534421   -2.9958503   -2.9958503   -1.6957023  0.062706476   -2.9958503    1.3001481   542250 
 4254000    0.9950316   -2.9959994   -2.9959994   -1.6962309  0.071100417   -2.9959994    1.2997685   542238 
 4255000   0.99493608   -2.9971562   -2.9971562   -1.6974861  0.067147047   -2.9971562    1.2996701   542227 
 4256000   0.99504533   -2.9962454   -2.9962454   -1.6964038  0.065637399   -2.9962454    1.2998416   542215 
 4257000   0.99602243   -2.9975839   -2.9975839   -1.6964371  0.064387967   -2.9975839    1.3011468   542203 
 4258000   0.99541132   -2.9965538   -2.9965538   -1.6961766  0.068881373   -2.9965538    1.3003772   542191 
 4259000   0.99545029   -2.9972034   -2.9972034   -1.6967489  0.066881881   -2.9972034    1.3004545   542180 
 4260000   0.99397266   -2.9942225   -2.9942225   -1.6956697  0.071639943   -2.9942225    1.2985529   542168 
 4261000   0.99376502   -2.9946636   -2.9946636   -1.6963533  0.065324035   -2.9946636    1.2983104   542156 
 4262000    0.9937098   -2.9942885   -2.9942885   -1.6960215  0.073463979   -2.9942885    1.2982669   542144 
 4263000   0.99676375   -2.9981291   -2.9981291   -1.6958458  0.062543125   -2.9981291    1.3022833   542133 
 4264000   0.99490139   -2.9969363   -2.9969363   -1.6970574  0.073490013   -2.9969363    1.2998789   542121 
 4265000   0.99472892   -2.9965808   -2.9965808   -1.6968985   0.06594011   -2.9965808    1.2996823   542109 
 4266000   0.99510092   -2.9975056   -2.9975056   -1.6973085  0.062949289   -2.9975056    1.3001971   542097 
 4267000   0.99353453   -2.9967379   -2.9967379   -1.6985587  0.064504833   -2.9967379    1.2981792   542085 
 4268000   0.99352587   -2.9961998   -2.9961998   -1.6980056  0.062788532   -2.9961998    1.2981943   542074 
 4269000   0.99304046   -2.9957346   -2.9957346   -1.6981459  0.057155931   -2.9957346    1.2975887   542062 
 4270000   0.99352334   -2.9953921   -2.9953921   -1.6971437  0.055684686   -2.9953921    1.2982484   542050 
 4271000   0.99367296   -2.9963554   -2.9963554   -1.6978827  0.045814118   -2.9963554    1.2984727   542038 
 4272000    0.9933285   -2.9947108   -2.9947108   -1.6966619    0.0537508   -2.9947108    1.2980489   542027 
 4273000   0.99335311   -2.9949741   -2.9949741   -1.6968643  0.064409771   -2.9949741    1.2981098   542015 
 4274000   0.99402414   -2.9949571   -2.9949571   -1.6959417  0.060938135   -2.9949571    1.2990155   542003 
 4275000   0.99436271   -2.9946933   -2.9946933   -1.6952066  0.060527828   -2.9946933    1.2994867   541991 
 4276000   0.99391514   -2.9929286   -2.9929286   -1.6940004  0.060098045   -2.9929286    1.2989281   541980 
 4277000   0.99448061   -2.9929305   -2.9929305   -1.6932346  0.067516404   -2.9929305    1.2996959   541968 
 4278000   0.99269181   -2.9920959   -2.9920959   -1.6947091  0.065326659   -2.9920959    1.2973869   541956 
 4279000   0.99343063   -2.9925783   -2.9925783   -1.6941971  0.060676577   -2.9925783    1.2983812   541944 
 4280000    0.9935323   -2.9921507   -2.9921507   -1.6936102  0.058024887   -2.9921507    1.2985404   541933 
 4281000   0.99489148   -2.9936258   -2.9936258   -1.6932801  0.054494037   -2.9936258    1.3003457   541921 
 4282000   0.99426093   -2.9935601   -2.9935601   -1.6940099  0.062834185   -2.9935601    1.2995503   541909 
 4283000   0.99508329   -2.9935509   -2.9935509   -1.6928969   0.05837374   -2.9935509     1.300654   541897 
 4284000   0.99379192   -2.9918694   -2.9918694   -1.6928746   0.06637727   -2.9918694    1.2989948   541885 
 4285000   0.99318093   -2.9914212   -2.9914212   -1.6931986  0.056284447   -2.9914212    1.2982225   541874 
 4286000   0.99301596   -2.9916563   -2.9916563   -1.6936207  0.063096084   -2.9916563    1.2980356   541862 
 4287000   0.99266377   -2.9924109   -2.9924109   -1.6948069   0.06677952   -2.9924109     1.297604   541850 
 4288000   0.99443435   -2.9942557   -2.9942557   -1.6943084  0.054697549   -2.9942557    1.2999473   541838 
 4289000   0.99340398   -2.9916387   -2.9916387    -1.693012  0.067902093   -2.9916387    1.2986267   541827 
 4290000    0.9935672   -2.9928176   -2.9928176   -1.6939487   0.06007952   -2.9928176    1.2988689   541815 
 4291000   0.99382819    -2.993594    -2.993594   -1.6943552  0.055837628    -2.993594    1.2992388   541803 
 4292000   0.99230658   -2.9920701   -2.9920701   -1.6947917  0.057459681   -2.9920701    1.2972783   541791 
 4293000   0.99443444   -2.9942475   -2.9942475    -1.694161  0.056125768   -2.9942475    1.3000866   541780 
 4294000   0.99309316   -2.9924398   -2.9924398    -1.694078  0.054476594   -2.9924398    1.2983618   541768 
 4295000   0.99361237   -2.9932943   -2.9932943   -1.6942249  0.053134558   -2.9932943    1.2990694   541756 
 4296000   0.99390739   -2.9938624   -2.9938624   -1.6943786  0.065686552   -2.9938624    1.2994839   541744 
 4297000   0.99275678   -2.9929523   -2.9929523   -1.6949464  0.057274776   -2.9929523    1.2980059   541733 
 4298000    0.9929187   -2.9942505   -2.9942505   -1.6960042   0.05756308   -2.9942505    1.2982463   541721 
 4299000   0.99244357   -2.9933238   -2.9933238     -1.69567  0.053298766   -2.9933238    1.2976538   541709 
 4300000   0.99349567   -2.9962029   -2.9962029   -1.6971447  0.061797479   -2.9962029    1.2990583   541697 
 4301000   0.99313304   -2.9965731   -2.9965731   -1.6979602   0.05804333   -2.9965731    1.2986129   541685 
 4302000   0.99052847    -2.994879    -2.994879   -1.6996455  0.066926448    -2.994879    1.2952335   541674 
 4303000    0.9924107   -2.9966834   -2.9966834     -1.69896  0.066616324   -2.9966834    1.2977234   541662 
 4304000   0.99264453   -2.9968114   -2.9968114   -1.6987534  0.065697603   -2.9968114     1.298058   541650 
 4305000   0.99282013   -2.9973478   -2.9973478   -1.6990314  0.068042427   -2.9973478    1.2983164   541638 
 4306000   0.99393639   -2.9986413   -2.9986413   -1.6988388  0.059574939   -2.9986413    1.2998025   541627 
 4307000   0.99347336    -2.998248    -2.998248   -1.6990222   0.05797419    -2.998248    1.2992258   541615 
 4308000   0.99356257   -2.9986628   -2.9986628   -1.6992916  0.064136891   -2.9986628    1.2993712   541603 
 4309000   0.99262064   -2.9973959   -2.9973959   -1.6992278  0.069423581   -2.9973959    1.2981681   541591 
 4310000   0.99308221   -2.9984758   -2.9984758   -1.6996776  0.070086623   -2.9984758    1.2987982   541580 
 4311000   0.99438829   -2.9987493   -2.9987493   -1.6982142     0.063143   -2.9987493    1.3005351   541568 
 4312000   0.99317769   -2.9974215   -2.9974215   -1.6984409  0.062601722   -2.9974215    1.2989806   541556 
 4313000   0.99374639   -2.9985321   -2.9985321   -1.6987789  0.064830443   -2.9985321    1.2997532   541544 
 4314000   0.99227542   -2.9976351   -2.9976351   -1.6997794  0.066710719   -2.9976351    1.2978556   541533 
 4315000   0.99246729   -2.9988089   -2.9988089   -1.7006735  0.069647879   -2.9988089    1.2981354   541521 
 4316000   0.99369273   -3.0001926   -3.0001926   -1.7004256   0.06387003   -3.0001926     1.299767   541509 
 4317000   0.99390007   -2.9994787   -2.9994787   -1.6994116  0.073546105   -2.9994787     1.300067   541497 
 4318000   0.99347619   -3.0005823   -3.0005823   -1.7010409  0.065122958   -3.0005823    1.2995414   541485 
 4319000   0.99190455   -2.9985937   -2.9985937   -1.7010818  0.060801587   -2.9985937    1.2975119   541474 
 4320000   0.99305385    -2.999505    -2.999505   -1.7004609  0.068548921    -2.999505    1.2990441   541462 
 4321000   0.99234831   -2.9986212   -2.9986212   -1.7004712  0.067901313   -2.9986212    1.2981499   541450 
 4322000   0.99034632   -2.9966052   -2.9966052   -1.7010455  0.061689189   -2.9966052    1.2955597   541438 
 4323000   0.99003823   -2.9975075   -2.9975075   -1.7023245  0.063952282   -2.9975075     1.295183   541427 
 4324000    0.9909858   -2.9980092   -2.9980092   -1.7015579  0.056835233   -2.9980092    1.2964514   541415 
 4325000   0.99082744   -2.9977694   -2.9977694   -1.7014965  0.053344964   -2.9977694    1.2962729   541403 
 4326000    0.9908736   -2.9981614   -2.9981614   -1.7017994  0.054469654   -2.9981614     1.296362   541391 
 4327000   0.99155214    -2.997944    -2.997944   -1.7006679  0.060508138    -2.997944    1.2972761   541380 
 4328000   0.99145234   -2.9968981   -2.9968981   -1.6997238  0.067973309   -2.9968981    1.2971743   541368 
 4329000   0.99097425   -2.9964998   -2.9964998   -1.6999222  0.065761709   -2.9964998    1.2965775   541356 
 4330000   0.98948897   -2.9952387   -2.9952387   -1.7005757  0.062335974   -2.9952387    1.2946629   541344 
 4331000   0.99058274   -2.9951292   -2.9951292   -1.6990089  0.060320085   -2.9951292    1.2961204   541333 
 4332000   0.99123243   -2.9967834   -2.9967834   -1.6997842  0.061120457   -2.9967834    1.2969992   541321 
 4333000   0.99084563   -2.9956254   -2.9956254   -1.6991035  0.066829988   -2.9956254    1.2965218   541309 
 4334000   0.99149493   -2.9951681   -2.9951681   -1.6977679  0.063791672   -2.9951681    1.2974002   541297 
 4335000    0.9923729   -2.9963827   -2.9963827   -1.6978048  0.070749446   -2.9963827    1.2985778   541285 
 4336000    0.9922125   -2.9960192   -2.9960192   -1.6976249  0.055681926   -2.9960192    1.2983943   541274 
 4337000   0.98970614   -2.9940061   -2.9940061   -1.6988629  0.063999954   -2.9940061    1.2951432   541262 
 4338000   0.99297515   -2.9973366   -2.9973366   -1.6978867  0.063196695   -2.9973366    1.2994499   541250 
 4339000   0.99005481   -2.9939775   -2.9939775   -1.6983206  0.056687855   -2.9939775     1.295657   541238 
 4340000   0.99107181   -2.9949644   -2.9949644   -1.6979501  0.052008722   -2.9949644    1.2970143   541227 
 4341000   0.99146089   -2.9968867   -2.9968867   -1.6993345   0.05925311   -2.9968867    1.2975522   541215 
 4342000   0.99057264   -2.9954549   -2.9954549   -1.6990364  0.056528655   -2.9954549    1.2964185   541203 
 4343000   0.99116238   -2.9961145   -2.9961145   -1.6988954   0.05564951   -2.9961145    1.2972191   541191 
 4344000   0.98990514   -2.9948154   -2.9948154   -1.6992155   0.06071535   -2.9948154    1.2955999   541180 
 4345000   0.99039592   -2.9945498   -2.9945498   -1.6982787  0.055467209   -2.9945498     1.296271   541168 
 4346000   0.99234305   -2.9969021   -2.9969021   -1.6980537  0.057514149   -2.9969021    1.2988483   541156 
 4347000   0.99166965   -2.9966062   -2.9966062   -1.6986105  0.057954982   -2.9966062    1.2979957   541144 
 4348000   0.99097445    -2.994384    -2.994384   -1.6972719  0.064504116    -2.994384    1.2971121   541133 
 4349000   0.99191835    -2.995598    -2.995598   -1.6972216  0.054646035    -2.995598    1.2983764   541121 
 4350000   0.99156183   -2.9943047   -2.9943047   -1.6963662  0.069437635   -2.9943047    1.2979385   541109 
 4351000   0.99222129   -2.9953536   -2.9953536   -1.6965231  0.072937953   -2.9953536    1.2988305   541097 
 4352000   0.99214631   -2.9955486   -2.9955486   -1.6967874  0.070235912   -2.9955486    1.2987612   541085 
 4353000   0.99284237   -2.9965354   -2.9965354   -1.6968366  0.062297846   -2.9965354    1.2996988   541074 
 4354000   0.99118244   -2.9946256   -2.9946256    -1.697071   0.06519129   -2.9946256    1.2975546   541062 
 4355000   0.99239279   -2.9960228   -2.9960228   -1.6968549  0.065414759   -2.9960228    1.2991679   541050 
 4356000    0.9920043   -2.9949323   -2.9949323   -1.6962442  0.060114195   -2.9949323    1.2986881   541038 
 4357000   0.99129848   -2.9947057   -2.9947057   -1.6969152  0.063863524   -2.9947057    1.2977905   541027 
 4358000   0.99107254   -2.9950831   -2.9950831   -1.6975597  0.059845108   -2.9950831    1.2975235   541015 
 4359000   0.99142052   -2.9956961   -2.9956961   -1.6976883  0.060410281   -2.9956961    1.2980078   541003 
 4360000   0.99010228   -2.9937202   -2.9937202   -1.6974095  0.063017877   -2.9937202    1.2963107   540991 
 4361000   0.99010684   -2.9940926   -2.9940926   -1.6977496  0.060745683   -2.9940926     1.296343   540980 
 4362000   0.99220505   -2.9962872   -2.9962872   -1.6971682  0.051150365   -2.9962872     1.299119   540968 
 4363000   0.99136047    -2.995779    -2.995779   -1.6977371  0.057993502    -2.995779     1.298042   540956 
 4364000   0.99142004   -2.9952023   -2.9952023   -1.6970535  0.066208478   -2.9952023    1.2981488   540944 
 4365000   0.98981717   -2.9945748   -2.9945748   -1.6984984  0.064973619   -2.9945748    1.2960764   540933 
 4366000      0.99047   -2.9953305   -2.9953305   -1.6983706  0.060806225   -2.9953305    1.2969599   540921 
 4367000   0.99194606   -2.9953424   -2.9953424   -1.6964208   0.05912608   -2.9953424    1.2989216   540909 
 4368000   0.99028352   -2.9935531   -2.9935531   -1.6967798  0.063974524   -2.9935531    1.2967733   540897 
 4369000   0.98981644   -2.9936521   -2.9936521   -1.6974616  0.067500449   -2.9936521    1.2961904   540885 
 4370000   0.98995461   -2.9944781   -2.9944781   -1.6980803  0.056727965   -2.9944781    1.2963977   540874 
 4371000   0.98974909   -2.9938537   -2.9938537   -1.6976963  0.051313129   -2.9938537    1.2961573   540862 
 4372000   0.98882627   -2.9934425   -2.9934425    -1.698465  0.061038247   -2.9934425    1.2949776   540850 
 4373000   0.98888026   -2.9948752   -2.9948752   -1.6997982  0.061771923   -2.9948752     1.295077   540838 
 4374000   0.98841628   -2.9943524   -2.9943524   -1.6998567  0.057362132   -2.9943524    1.2944957   540827 
 4375000   0.98937978   -2.9949707   -2.9949707   -1.6991844  0.057270211   -2.9949707    1.2957863   540815 
 4376000   0.98852217   -2.9940932   -2.9940932   -1.6994014  0.060174737   -2.9940932    1.2946918   540803 
 4377000   0.98841915   -2.9941102   -2.9941102   -1.6995246  0.062578621   -2.9941102    1.2945856   540791 
 4378000   0.99044392   -2.9961768   -2.9961768   -1.6989129  0.060769563   -2.9961768    1.2972639   540780 
 4379000   0.98950757   -2.9953782   -2.9953782   -1.6993119  0.067997114   -2.9953782    1.2960663   540768 
 4380000    0.9899051   -2.9965712   -2.9965712   -1.6999555  0.067459676   -2.9965712    1.2966158   540756 
 4381000      0.99196   -2.9981734   -2.9981734   -1.6988372  0.060727259   -2.9981734    1.2993362   540744 
 4382000   0.99238932    -2.998657    -2.998657    -1.698732  0.058522861    -2.998657     1.299925   540733 
 4383000   0.99223549   -2.9987792   -2.9987792   -1.6990269  0.063594301   -2.9987792    1.2997523   540721 
 4384000   0.99164966   -2.9976447   -2.9976447    -1.698631  0.069401675   -2.9976447    1.2990138   540709 
 4385000   0.99129582   -2.9981631   -2.9981631   -1.6995841  0.068359841   -2.9981631    1.2985791   540697 
 4386000   0.99095821   -2.9977904   -2.9977904   -1.6996247   0.06739617   -2.9977904    1.2981656   540685 
 4387000   0.99311704   -3.0007022   -3.0007022   -1.6996821  0.063611503   -3.0007022    1.3010202   540674 
 4388000   0.99103267   -2.9987751   -2.9987751   -1.7004567  0.073615092   -2.9987751    1.2983184   540662 
 4389000   0.99229064   -2.9999237   -2.9999237   -1.6999285  0.064234042   -2.9999237    1.2999953   540650 
 4390000   0.99042084   -2.9992469   -2.9992469   -1.7016724  0.066671898   -2.9992469    1.2975744   540638 
 4391000    0.9901562   -2.9981428   -2.9981428   -1.7008887  0.059794143   -2.9981428    1.2972541   540627 
 4392000   0.98963198   -2.9974167   -2.9974167   -1.7008206  0.061677281   -2.9974167    1.2965961   540615 
 4393000   0.98973125   -2.9984805   -2.9984805   -1.7017256  0.063895816   -2.9984805     1.296755   540603 
 4394000   0.98964934   -2.9989666   -2.9989666   -1.7022902  0.060038234   -2.9989666    1.2966764   540591 
 4395000   0.98935215   -2.9984363   -2.9984363   -1.7021229  0.061786343   -2.9984363    1.2963134   540580 
 4396000    0.9897466   -2.9985384   -2.9985384   -1.7016794  0.060207131   -2.9985384     1.296859   540568 
 4397000   0.98879009   -2.9973682   -2.9973682   -1.7017337  0.062597152   -2.9973682    1.2956345   540556 
 4398000   0.98882428   -2.9985445   -2.9985445   -1.7028365  0.057995096   -2.9985445     1.295708   540544 
 4399000   0.98693212      -2.9965      -2.9965    -1.703245   0.06043765      -2.9965     1.293255   540533 
 4400000   0.98948931   -2.9980683   -2.9980683   -1.7014336  0.058591269   -2.9980683    1.2966346   540521 
 4401000   0.98824273   -2.9965316   -2.9965316   -1.7015018  0.069657521   -2.9965316    1.2950298   540509 
 4402000    0.9888318   -2.9969746   -2.9969746    -1.701144  0.059405037   -2.9969746    1.2958306   540497 
 4403000   0.98751248    -2.995315    -2.995315   -1.7011847  0.069744085    -2.995315    1.2941304   540485 
 4404000    0.9876704   -2.9952345   -2.9952345   -1.7008708  0.064610298   -2.9952345    1.2943637   540474 
 4405000   0.98777703   -2.9944401   -2.9944401    -1.699908  0.061559525   -2.9944401    1.2945321   540462 
 4406000   0.98938065   -2.9968458   -2.9968458   -1.7001832  0.060401857   -2.9968458    1.2966626   540450 
 4407000   0.98886427   -2.9974095   -2.9974095    -1.701395  0.062092405   -2.9974095    1.2960146   540438 
 4408000   0.99005358   -2.9980927   -2.9980927    -1.700493  0.056998744   -2.9980927    1.2975997   540427 
 4409000   0.99060516   -2.9977207   -2.9977207   -1.6993692  0.068907133   -2.9977207    1.2983515   540415 
 4410000   0.98925609   -2.9967887   -2.9967887   -1.7001766  0.052928035   -2.9967887    1.2966121   540403 
 4411000   0.99067019   -2.9979085   -2.9979085   -1.6994141  0.066439275   -2.9979085    1.2984944   540391 
 4412000   0.99063627   -2.9975809   -2.9975809   -1.6991046   0.07240205   -2.9975809    1.2984763   540380 
 4413000   0.98978403   -2.9953628   -2.9953628   -1.6979748  0.063392634   -2.9953628    1.2973881   540368 
 4414000   0.98978204   -2.9962054   -2.9962054   -1.6987911  0.065122408   -2.9962054    1.2974143   540356 
 4415000   0.99064777   -2.9976252   -2.9976252   -1.6990472  0.056989379   -2.9976252    1.2985779   540344 
 4416000   0.98866309   -2.9956098   -2.9956098   -1.6996071  0.069429731   -2.9956098    1.2960027   540333 
 4417000   0.99000678   -2.9961677   -2.9961677   -1.6983748  0.063340034   -2.9961677    1.2977929   540321 
 4418000   0.99112033    -2.997871    -2.997871   -1.6985895  0.062933414    -2.997871    1.2992815   540309 
 4419000   0.99056058   -2.9976895   -2.9976895   -1.6991129  0.066896837   -2.9976895    1.2985766   540297 
 4420000   0.99081429   -2.9983796   -2.9983796   -1.6994416  0.064670725   -2.9983796     1.298938   540285 
 4421000   0.99024294   -2.9979295   -2.9979295   -1.6997141  0.062724746   -2.9979295    1.2982154   540274 
 4422000   0.98933644   -2.9973611   -2.9973611   -1.7003053  0.065410982   -2.9973611    1.2970558   540262 
 4423000   0.98974758   -2.9984339   -2.9984339   -1.7008102  0.060643488   -2.9984339    1.2976237   540250 
 4424000    0.9918012    -3.000599    -3.000599   -1.7002541  0.068340438    -3.000599     1.300345   540238 
 4425000   0.99082528   -2.9984024   -2.9984024   -1.6993105  0.061823954   -2.9984024    1.2990919   540227 
 4426000   0.98951546   -2.9982837   -2.9982837   -1.7008803  0.065370723   -2.9982837    1.2974034   540215 
 4427000    0.9889381   -2.9982589   -2.9982589   -1.7015837  0.066228064   -2.9982589    1.2966752   540203 
 4428000   0.98987634    -2.999579    -2.999579   -1.7016447  0.053712562    -2.999579    1.2979342   540191 
 4429000    0.9890161   -2.9993977   -2.9993977   -1.7025651  0.063683023   -2.9993977    1.2968327   540180 
 4430000   0.98822135   -2.9976395   -2.9976395   -1.7018201  0.062520588   -2.9976395    1.2958194   540168 
 4431000    0.9890072   -2.9995678   -2.9995678   -1.7026892  0.060460421   -2.9995678    1.2968786   540156 
 4432000   0.98884239   -2.9988271   -2.9988271   -1.7021358  0.060761848   -2.9988271    1.2966913   540144 
 4433000   0.98923272   -2.9993481   -2.9993481   -1.7021185  0.061071615   -2.9993481    1.2972296   540133 
 4434000   0.98870353    -2.998556    -2.998556   -1.7019915  0.061522231    -2.998556    1.2965644   540121 
 4435000   0.98981235   -3.0001272   -3.0001272   -1.7020799  0.061491162   -3.0001272    1.2980474   540109 
 4436000   0.98831674    -2.999042    -2.999042   -1.7029272  0.057274366    -2.999042    1.2961148   540097 
 4437000   0.98866226   -2.9985139   -2.9985139   -1.7019171  0.054609007   -2.9985139    1.2965967   540085 
 4438000   0.98875992    -2.998827    -2.998827   -1.7020757  0.068636145    -2.998827    1.2967512   540074 
 4439000      0.98919   -2.9996102   -2.9996102   -1.7022661  0.061206465   -2.9996102    1.2973441   540062 
 4440000   0.99073662   -3.0019718   -3.0019718   -1.7025705  0.057674723   -3.0019718    1.2994014   540050 
 4441000   0.98895075   -2.9993658   -2.9993658   -1.7022779  0.053560416   -2.9993658    1.2970879   540038 
 4442000   0.98894968   -2.9990139   -2.9990139   -1.7019009  0.060241207   -2.9990139     1.297113   540027 
 4443000   0.98909234   -2.9997234   -2.9997234   -1.7023945  0.058757192   -2.9997234    1.2973289   540015 
 4444000   0.98982662    -3.000617    -3.000617   -1.7022961  0.073261045    -3.000617    1.2983209   540003 
 4445000   0.98969972   -3.0005594   -3.0005594   -1.7023762  0.062701949   -3.0005594    1.2981833   539991 
 4446000   0.98868052    -2.999175    -2.999175   -1.7023022  0.057415741    -2.999175    1.2968728   539980 
 4447000    0.9889388   -2.9990203   -2.9990203   -1.7017798  0.066822709   -2.9990203    1.2972404   539968 
 4448000   0.98844529   -2.9994908   -2.9994908   -1.7028689  0.066212889   -2.9994908    1.2966219   539956 
 4449000   0.98765157   -2.9993416   -2.9993416   -1.7037321    0.0622609   -2.9993416    1.2956095   539944 
 4450000   0.98806817   -2.9998801   -2.9998801   -1.7036977  0.061743325   -2.9998801    1.2961824   539933 
 4451000   0.98730183   -2.9988378   -2.9988378   -1.7036319    0.0608612   -2.9988378    1.2952059   539921 
 4452000   0.98816851   -3.0003718   -3.0003718   -1.7040002   0.05206923   -3.0003718    1.2963716   539909 
 4453000   0.98725573   -2.9993942   -2.9993942   -1.7041912  0.060875432   -2.9993942     1.295203   539897 
 4454000   0.98655012   -2.9992853   -2.9992853   -1.7049793  0.059101617   -2.9992853     1.294306   539885 
 4455000   0.98642762   -2.9982496   -2.9982496    -1.704078  0.061157181   -2.9982496    1.2941717   539874 
 4456000   0.98640999   -2.9986782   -2.9986782   -1.7045009  0.063261076   -2.9986782    1.2941773   539862 
 4457000   0.98757361   -2.9997184   -2.9997184   -1.7039856  0.065634489   -2.9997184    1.2957328   539850 
 4458000   0.98807716   -3.0002303   -3.0002303    -1.703808  0.055729552   -3.0002303    1.2964223   539838 
 4459000   0.98895086   -3.0005617   -3.0005617   -1.7029666  0.069977539   -3.0005617    1.2975951   539827 
 4460000   0.98928203   -3.0010025   -3.0010025    -1.702944  0.057495759   -3.0010025    1.2980585   539815 
 4461000   0.98827831   -3.0000633   -3.0000633    -1.703293   0.05806016   -3.0000633    1.2967703   539803 
 4462000    0.9880253   -2.9992969   -2.9992969   -1.7028298   0.07080635   -2.9992969    1.2964671   539791 
 4463000   0.98733443   -2.9991295   -2.9991295   -1.7035426   0.06483054   -2.9991295     1.295587   539780 
 4464000   0.98822218   -2.9995064   -2.9995064   -1.7027257  0.066978084   -2.9995064    1.2967807   539768 
 4465000   0.98707401   -2.9980711   -2.9980711   -1.7027683  0.067422926   -2.9980711    1.2953028   539756 
 4466000   0.98778067   -2.9992862   -2.9992862   -1.7030272  0.062756224   -2.9992862     1.296259   539744 
 4467000   0.98927877   -3.0014194   -3.0014194    -1.703168  0.058601668   -3.0014194    1.2982514   539733 
 4468000   0.98812488   -3.0007369   -3.0007369    -1.703971  0.062517475   -3.0007369     1.296766   539721 
 4469000   0.98899776   -3.0000362   -3.0000362   -1.7020958  0.052608014   -3.0000362    1.2979403   539709 
 4470000   0.98878238   -2.9998321   -2.9998321   -1.7021456  0.065656699   -2.9998321    1.2976865   539697 
 4471000   0.98929078   -3.0003149   -3.0003149   -1.7019323  0.059169071   -3.0003149    1.2983826   539685 
 4472000   0.98824859   -2.9979588   -2.9979588   -1.7009175  0.066699856   -2.9979588    1.2970413   539674 
 4473000   0.98851176    -2.999232    -2.999232   -1.7018165  0.068061808    -2.999232    1.2974155   539662 
 4474000   0.98757014   -2.9994054   -2.9994054   -1.7031969  0.063405059   -2.9994054    1.2962085   539650 
 4475000    0.9879231   -2.9999427   -2.9999427   -1.7032421  0.072238489   -2.9999427    1.2967006   539638 
 4476000   0.98746378   -2.9987375   -2.9987375   -1.7026134  0.058637905   -2.9987375    1.2961241   539627 
 4477000   0.98677458   -2.9973651   -2.9973651   -1.7021169  0.059666315   -2.9973651    1.2952483   539615 
 4478000   0.98694535   -2.9983369   -2.9983369   -1.7028356  0.067111388   -2.9983369    1.2955012   539603 
 4479000   0.98561338   -2.9986699   -2.9986699   -1.7048882  0.058991195   -2.9986699    1.2937816   539591 
 4480000   0.98566022   -2.9973825   -2.9973825    -1.703513  0.056720692   -2.9973825    1.2938695   539580 
 4481000   0.98503335   -2.9977586   -2.9977586   -1.7046832  0.059528766   -2.9977586    1.2930753   539568 
 4482000   0.98574747   -2.9970132   -2.9970132   -1.7029717   0.06699733   -2.9970132    1.2940416   539556 
 4483000   0.98476075   -2.9963745   -2.9963745   -1.7035995  0.050974527   -2.9963745     1.292775   539544 
 4484000    0.9853431   -2.9972604   -2.9972604   -1.7036946   0.06215929   -2.9972604    1.2935659   539533 
 4485000   0.98588573   -2.9981464   -2.9981464   -1.7038394  0.065241991   -2.9981464     1.294307   539521 
 4486000   0.98522797   -2.9977163   -2.9977163    -1.704244  0.055417673   -2.9977163    1.2934723   539509 
 4487000   0.98622452   -2.9988418   -2.9988418   -1.7040324   0.05473417   -2.9988418    1.2948094   539497 
 4488000   0.98541136   -2.9984798   -2.9984798   -1.7047092  0.053344306   -2.9984798    1.2937706   539485 
 4489000   0.98694387   -3.0000372   -3.0000372   -1.7042281  0.066574781   -3.0000372    1.2958091   539474 
 4490000   0.98494771   -2.9977137   -2.9977137   -1.7044967  0.062256787   -2.9977137     1.293217   539462 
 4491000   0.98468421   -2.9970485   -2.9970485   -1.7041487  0.069016879   -2.9970485    1.2928998   539450 
 4492000   0.98609006   -2.9987896   -2.9987896   -1.7040152  0.063085804   -2.9987896    1.2947745   539438 
 4493000   0.98620528   -2.9988584   -2.9988584   -1.7039063  0.063450041   -2.9988584    1.2949522   539427 
 4494000   0.98570387   -2.9990939   -2.9990939   -1.7047713  0.066155164   -2.9990939    1.2943226   539415 
 4495000   0.98575263   -2.9980665   -2.9980665   -1.7036511  0.062531492   -2.9980665    1.2944154   539403 
 4496000   0.98585045   -2.9984617   -2.9984617    -1.703889    0.0593779   -2.9984617    1.2945726   539391 
 4497000   0.98673372   -2.9995764   -2.9995764   -1.7038175  0.050029862   -2.9995764    1.2957589   539380 
 4498000   0.98535225   -2.9985317   -2.9985317   -1.7045581  0.060260276   -2.9985317    1.2939736   539368 
 4499000   0.98561874   -2.9983638   -2.9983638   -1.7040114  0.058207238   -2.9983638    1.2943524   539356 
 4500000   0.98535017   -2.9995283   -2.9995283   -1.7054999  0.067510215   -2.9995283    1.2940284   539344 
 4501000   0.98600686   -2.9985866   -2.9985866   -1.7036693  0.062264845   -2.9985866    1.2949173   539333 
 4502000    0.9867466   -2.9995484   -2.9995484   -1.7036308  0.050576279   -2.9995484    1.2959176   539321 
 4503000   0.98712771   -2.9995875   -2.9995875   -1.7031406  0.068163181   -2.9995875     1.296447   539309 
 4504000   0.98830162   -3.0008019   -3.0008019   -1.7027843  0.069345338   -3.0008019    1.2980176   539297 
 4505000   0.98798756    -3.001423    -3.001423    -1.703789  0.066437084    -3.001423     1.297634   539285 
 4506000   0.98785771   -3.0007888   -3.0007888   -1.7032988  0.054999584   -3.0007888    1.2974899   539274 
 4507000   0.98655339   -2.9991452   -2.9991452   -1.7033395   0.05785479   -2.9991452    1.2958056   539262 
 4508000   0.98681383   -3.0001645   -3.0001645    -1.703988  0.062752295   -3.0001645    1.2961765   539250 
 4509000   0.98684129   -3.0010589   -3.0010589   -1.7048175   0.06379984   -3.0010589    1.2962415   539238 
 4510000   0.98624432   -2.9997135   -2.9997135   -1.7042298  0.061372737   -2.9997135    1.2954837   539227 
 4511000   0.98522996   -2.9989723   -2.9989723   -1.7047922  0.065907355   -2.9989723    1.2941801   539215 
 4512000   0.98576167   -2.9999948   -2.9999948   -1.7050874  0.058703893   -2.9999948    1.2949074   539203 
 4513000   0.98557252   -3.0007705   -3.0007705   -1.7060828    0.0585148   -3.0007705    1.2946877   539191 
 4514000   0.98589308   -3.0004132   -3.0004132    -1.705278  0.062334647   -3.0004132    1.2951353   539180 
 4515000   0.98557835   -2.9987582   -2.9987582   -1.7040075  0.066773562   -2.9987582    1.2947506   539168 
 4516000   0.98541595    -2.999462    -2.999462    -1.704896  0.060012336    -2.999462    1.2945661   539156 
 4517000   0.98627941   -3.0000429   -3.0000429   -1.7043137  0.057025848   -3.0000429    1.2957293   539144 
 4518000   0.98544099   -2.9994751   -2.9994751   -1.7048209  0.059721758   -2.9994751    1.2946542   539133 
 4519000   0.98517263   -2.9991996   -2.9991996   -1.7048692  0.058419471   -2.9991996    1.2943305   539121 
 4520000   0.98667874    -3.001014    -3.001014   -1.7046759  0.053927919    -3.001014    1.2963381   539109 
 4521000   0.98503931   -2.9982733   -2.9982733   -1.7040604   0.07326439   -2.9982733    1.2942129   539097 
 4522000   0.98548519   -2.9984003   -2.9984003   -1.7035727  0.057006944   -2.9984003    1.2948276   539085 
 4523000   0.98745118   -3.0012135   -3.0012135   -1.7037763  0.059580009   -3.0012135    1.2974371   539074 
 4524000   0.98580476     -2.99794     -2.99794   -1.7026373   0.06808607     -2.99794    1.2953027   539062 
 4525000   0.98740086   -3.0001934   -3.0001934   -1.7027646  0.065000617   -3.0001934    1.2974288   539050 
 4526000   0.98771126    -3.000506    -3.000506   -1.7026404  0.060309708    -3.000506    1.2978656   539038 
 4527000   0.98737231   -2.9996444   -2.9996444   -1.7021978  0.058039081   -2.9996444    1.2974466   539027 
 4528000   0.98749777   -3.0002334   -3.0002334    -1.702593  0.064295595   -3.0002334    1.2976404   539015 
 4529000   0.98650113   -2.9997693   -2.9997693   -1.7034097  0.057823629   -2.9997693    1.2963596   539003 
 4530000   0.98460421   -2.9978135   -2.9978135   -1.7039178  0.062010626   -2.9978135    1.2938957   538991 
 4531000   0.98519785   -2.9985866   -2.9985866   -1.7038844  0.048341546   -2.9985866    1.2947022   538980 
 4532000    0.9854479   -2.9980495   -2.9980495   -1.7029898  0.062644048   -2.9980495    1.2950596   538968 
 4533000   0.98549962   -2.9983253   -2.9983253   -1.7031688  0.064687965   -2.9983253    1.2951564   538956 
 4534000   0.98451739   -2.9971595   -2.9971595   -1.7032651   0.06251065   -2.9971595    1.2938944   538944 
 4535000   0.98416932   -2.9974811   -2.9974811   -1.7040178  0.059986342   -2.9974811    1.2934633   538933 
 4536000   0.98501775   -2.9970434   -2.9970434   -1.7024361  0.050471974   -2.9970434    1.2946072   538921 
 4537000   0.98490216   -2.9976249   -2.9976249   -1.7031407  0.060795479   -2.9976249    1.2944841   538909 
 4538000   0.98472049   -2.9982293   -2.9982293   -1.7039551   0.05699202   -2.9982293    1.2942742   538897 
 4539000   0.98434198   -2.9971278   -2.9971278   -1.7033223  0.060435479   -2.9971278    1.2938055   538885 
 4540000   0.98542139   -2.9990583   -2.9990583   -1.7038076  0.060483758   -2.9990583    1.2952507   538874 
 4541000   0.98670112   -2.9987343   -2.9987343   -1.7017727    0.0678524   -2.9987343    1.2969617   538862 
 4542000    0.9878157   -3.0000071   -3.0000071   -1.7015515  0.068207716   -3.0000071    1.2984556   538850 
 4543000   0.98526481     -2.99722     -2.99722   -1.7020886  0.063922518     -2.99722    1.2951314   538838 
 4544000   0.98496955    -2.997161    -2.997161   -1.7023913  0.057506651    -2.997161    1.2947697   538827 
 4545000   0.98328667    -2.996568    -2.996568   -1.7039817  0.061325735    -2.996568    1.2925863   538815 
 4546000   0.98439043   -2.9983544   -2.9983544   -1.7042883  0.054837587   -2.9983544    1.2940661   538803 
 4547000    0.9832305    -2.996889    -2.996889   -1.7043189  0.060644124    -2.996889    1.2925701   538791 
 4548000     0.983139   -2.9965672   -2.9965672   -1.7040911  0.062209563   -2.9965672    1.2924762   538780 
 4549000   0.98267706   -2.9981463   -2.9981463   -1.7062486  0.060617617   -2.9981463    1.2918976   538768 
 4550000   0.98309485   -2.9981913   -2.9981913   -1.7057156  0.062631599   -2.9981913    1.2924757   538756 
 4551000   0.98448552   -2.9992899   -2.9992899    -1.704957  0.058700734   -2.9992899    1.2943328   538744 
 4552000   0.98598104   -3.0000322   -3.0000322   -1.7037067  0.058511444   -3.0000322    1.2963255   538733 
 4553000   0.98510041   -2.9994877   -2.9994877   -1.7042911  0.061073789   -2.9994877    1.2951965   538721 
 4554000   0.98592054   -2.9999661   -2.9999661   -1.7036624  0.059950829   -2.9999661    1.2963037   538709 
 4555000   0.98597391   -3.0004669   -3.0004669   -1.7040641  0.067371282   -3.0004669    1.2964028   538697 
 4556000   0.98667637   -3.0010802   -3.0010802    -1.703725  0.062662328   -3.0010802    1.2973553   538685 
 4557000    0.9862742   -2.9995662   -2.9995662   -1.7027132   0.06326769   -2.9995662     1.296853   538674 
 4558000   0.98571338   -3.0003702   -3.0003702   -1.7042258  0.060542686   -3.0003702    1.2961444   538662 
 4559000   0.98601431   -3.0010677   -3.0010677   -1.7044987   0.06151873   -3.0010677     1.296569   538650 
 4560000   0.98519034   -2.9994433   -2.9994433    -1.703929  0.068836516   -2.9994433    1.2955144   538638 
 4561000   0.98529086   -2.9992527   -2.9992527   -1.7035797   0.06404753   -2.9992527     1.295673   538627 
 4562000   0.98519077   -2.9987021   -2.9987021   -1.7031318  0.057983192   -2.9987021    1.2955703   538615 
 4563000   0.98527077   -2.9993389   -2.9993389   -1.7036345   0.06441487   -2.9993389    1.2957043   538603 
 4564000   0.98557207   -3.0004621   -3.0004621   -1.7043326  0.057019653   -3.0004621    1.2961294   538591 
 4565000    0.9854547   -3.0001798   -3.0001798   -1.7041782  0.059061624   -3.0001798    1.2960016   538580 
 4566000    0.9845615   -2.9992419   -2.9992419   -1.7043862  0.062661335   -2.9992419    1.2948557   538568 
 4567000    0.9853027   -3.0002042   -3.0002042   -1.7043448   0.05342469   -3.0002042    1.2958594   538556 
 4568000   0.98422417   -2.9998582   -2.9998582   -1.7053884  0.060102891   -2.9998582    1.2944698   538544 
 4569000   0.98493945   -3.0014313   -3.0014313   -1.7059943  0.062715062   -3.0014313     1.295437   538533 
 4570000   0.98479959   -3.0019689   -3.0019689    -1.706687   0.05239003   -3.0019689    1.2952819   538521 
 4571000   0.98457073   -3.0015156   -3.0015156   -1.7065058  0.060200498   -3.0015156    1.2950097   538509 
 4572000   0.98243147    -2.999412    -2.999412   -1.7071873  0.055224915    -2.999412    1.2922248   538497 
 4573000   0.98205935   -2.9984802   -2.9984802   -1.7067161  0.054103971   -2.9984802    1.2917641   538485 
 4574000   0.98451866   -2.9997592   -2.9997592   -1.7047337  0.052397431   -2.9997592    1.2950254   538474 
 4575000   0.98452791   -2.9991599   -2.9991599   -1.7040934  0.068863317   -2.9991599    1.2950665   538462 
 4576000   0.98285582   -2.9985062   -2.9985062   -1.7056105  0.057991904   -2.9985062    1.2928958   538450 
 4577000     0.983186   -2.9986626   -2.9986626   -1.7053037  0.058316021   -2.9986626    1.2933589   538438 
 4578000   0.98294163   -2.9986426   -2.9986426   -1.7055788   0.06157981   -2.9986426    1.2930639   538427 
 4579000   0.98270853   -2.9982145   -2.9982145   -1.7054285  0.065555365   -2.9982145     1.292786   538415 
 4580000   0.98412391   -3.0017794   -3.0017794   -1.7071025  0.059320866   -3.0017794    1.2946769   538403 
 4581000   0.98490398   -3.0029066   -3.0029066   -1.7071746  0.059164925   -3.0029066     1.295732   538391 
 4582000   0.98520881   -3.0021909   -3.0021909   -1.7060314  0.062892801   -3.0021909    1.2961595   538380 
 4583000   0.98307961   -3.0001206   -3.0001206   -1.7067335  0.060899393   -3.0001206    1.2933871   538368 
 4584000    0.9853244   -3.0027774   -3.0027774    -1.706408  0.056350222   -3.0027774    1.2963694   538356 
 4585000   0.98267356   -2.9996674   -2.9996674   -1.7067569  0.061734175   -2.9996674    1.2929105   538344 
 4586000   0.98267977   -2.9994024   -2.9994024   -1.7064573  0.053678271   -2.9994024    1.2929451   538333 
 4587000   0.98189601   -2.9974671   -2.9974671   -1.7055244   0.06543219   -2.9974671    1.2919427   538321 
 4588000   0.98310271   -3.0000032   -3.0000032   -1.7064439  0.061287607   -3.0000032    1.2935593   538309 
 4589000   0.98315684   -3.0003793   -3.0003793   -1.7067199   0.06331269   -3.0003793    1.2936593   538297 
 4590000   0.98375963   -3.0015586   -3.0015586   -1.7070772  0.060042967   -3.0015586    1.2944814   538285 
 4591000   0.98358537   -3.0005173   -3.0005173   -1.7062388  0.062897625   -3.0005173    1.2942785   538274 
 4592000   0.98370998   -3.0007063   -3.0007063    -1.706235  0.060788185   -3.0007063    1.2944713   538262 
 4593000   0.98355808   -3.0014099   -3.0014099   -1.7071096  0.066715458   -3.0014099    1.2943003   538250 
 4594000   0.98502578   -3.0033925   -3.0033925   -1.7071319  0.063931195   -3.0033925    1.2962606   538238 
 4595000   0.98574013   -3.0037357   -3.0037357   -1.7065085  0.056827559   -3.0037357    1.2972272   538227 
 4596000   0.98395647   -3.0009011   -3.0009011   -1.7059923  0.067115846   -3.0009011    1.2949088   538215 
 4597000   0.98580078   -3.0026552   -3.0026552   -1.7052903  0.067562111   -3.0026552    1.2973648   538203 
 4598000   0.98503554   -3.0018001   -3.0018001   -1.7054134  0.057000026   -3.0018001    1.2963866   538191 
 4599000   0.98422347   -3.0016543   -3.0016543   -1.7063099  0.062468788   -3.0016543    1.2953444   538180 
 4600000   0.98405738   -3.0015137   -3.0015137    -1.706359  0.064931126   -3.0015137    1.2951547   538168 
 4601000   0.98485643    -3.002764    -3.002764   -1.7065288  0.053039972    -3.002764    1.2962352   538156 
 4602000   0.98451038   -3.0020342   -3.0020342   -1.7062255  0.061883535   -3.0020342    1.2958087   538144 
 4603000   0.98314422   -3.0017591   -3.0017591   -1.7077221  0.064304532   -3.0017591     1.294037   538133 
 4604000   0.98365243    -3.001654    -3.001654   -1.7069192  0.062207179    -3.001654    1.2947348   538121 
 4605000   0.98261681   -3.0010196   -3.0010196   -1.7076192  0.063313012   -3.0010196    1.2934005   538109 
 4606000   0.98209029     -3.00068     -3.00068   -1.7079437  0.057894776     -3.00068    1.2927362   538097 
 4607000   0.98288816   -3.0008469   -3.0008469   -1.7070316  0.066808678   -3.0008469    1.2938153   538085 
 4608000   0.98286164   -3.0004697   -3.0004697   -1.7066628  0.062519791   -3.0004697    1.2938069   538074 
 4609000    0.9817597   -2.9996957   -2.9996957   -1.7073106  0.061949205   -2.9996957    1.2923852   538062 
 4610000   0.98300188    -3.000891    -3.000891   -1.7068418  0.068017044    -3.000891    1.2940492   538050 
 4611000   0.98370748   -3.0014595   -3.0014595   -1.7064525  0.054225363   -3.0014595     1.295007   538038 
 4612000   0.98353935   -3.0004761   -3.0004761    -1.705664  0.059927081   -3.0004761    1.2948121   538027 
 4613000   0.98373234   -3.0023453   -3.0023453   -1.7072502   0.04995899   -3.0023453    1.2950951   538015 
 4614000   0.98266322   -3.0014036   -3.0014036   -1.7076872  0.055357601   -3.0014036    1.2937164   538003 
 4615000   0.98249914   -2.9998128   -2.9998128   -1.7062836  0.060762383   -2.9998128    1.2935292   537991 
 4616000   0.98088407   -2.9980519   -2.9980519   -1.7066226  0.058320694   -2.9980519    1.2914293   537980 
 4617000   0.98203299   -3.0007202   -3.0007202   -1.7077494  0.055098404   -3.0007202    1.2929708   537968 
 4618000   0.98210448   -3.0016501   -3.0016501   -1.7085563  0.061374307   -3.0016501    1.2930938   537956 
 4619000   0.98251055   -3.0006353   -3.0006353    -1.706978  0.063000841   -3.0006353    1.2936573   537944 
 4620000   0.98193134   -3.0001825   -3.0001825   -1.7072615  0.059836373   -3.0001825    1.2929211   537933 
 4621000   0.98239769   -3.0012829   -3.0012829   -1.7077189  0.053322882   -3.0012829     1.293564   537921 
 4622000   0.98226707   -3.0015827   -3.0015827   -1.7081618  0.055959033   -3.0015827    1.2934208   537909 
 4623000    0.9820452   -3.0011459   -3.0011459   -1.7079883   0.05791352   -3.0011459    1.2931575   537897 
 4624000   0.98231271   -3.0008843   -3.0008843   -1.7073456  0.058770232   -3.0008843    1.2935387   537885 
 4625000   0.98232913   -3.0011876   -3.0011876   -1.7076009  0.066781067   -3.0011876    1.2935867   537874 
 4626000   0.98223058   -3.0002637   -3.0002637   -1.7067779  0.066998338   -3.0002637    1.2934858   537862 
 4627000   0.98144283    -3.002251    -3.002251   -1.7097737   0.06238732    -3.002251    1.2924773   537850 
 4628000   0.98091365   -3.0008127   -3.0008127   -1.7090035  0.054773437   -3.0008127    1.2918092   537838 
 4629000   0.98182053   -3.0014152   -3.0014152   -1.7083852  0.058985854   -3.0014152      1.29303   537827 
 4630000   0.98173443   -3.0013919   -3.0013919   -1.7084465  0.058560484   -3.0013919    1.2929454   537815 
 4631000    0.9819234   -3.0015823   -3.0015823   -1.7083592  0.059181212   -3.0015823    1.2932232   537803 
 4632000   0.98122812   -3.0006213   -3.0006213    -1.708285  0.056947928   -3.0006213    1.2923363   537791 
 4633000    0.9819924   -3.0010107   -3.0010107   -1.7076413  0.058356582   -3.0010107    1.2933693   537780 
 4634000     0.981227   -3.0003037   -3.0003037   -1.7079136   0.06253615   -3.0003037    1.2923901   537768 
 4635000   0.98148893   -3.0013347   -3.0013347   -1.7085708  0.053058105   -3.0013347    1.2927639   537756 
 4636000   0.98058463   -3.0010005   -3.0010005   -1.7093989  0.065691392   -3.0010005    1.2916016   537744 
 4637000    0.9814554   -3.0029662   -3.0029662   -1.7101912  0.063473546   -3.0029662    1.2927751   537733 
 4638000   0.98121032   -3.0023561   -3.0023561    -1.709875  0.070118102   -3.0023561    1.2924811   537721 
 4639000   0.98176467   -3.0033948   -3.0033948   -1.7101546  0.060633889   -3.0033948    1.2932401   537709 
 4640000   0.98142159   -3.0032762   -3.0032762   -1.7104591  0.058399655   -3.0032762    1.2928171   537697 
 4641000   0.97975476   -3.0011006   -3.0011006   -1.7104505  0.053185302   -3.0011006    1.2906502   537685 
 4642000   0.98156728   -3.0033502   -3.0033502   -1.7102859  0.055751258   -3.0033502    1.2930643   537674 
 4643000   0.98136321   -3.0032718   -3.0032718   -1.7104475  0.058642212   -3.0032718    1.2928243   537662 
 4644000   0.98118142    -3.003057    -3.003057   -1.7104433  0.059833177    -3.003057    1.2926137   537650 
 4645000   0.98064243   -3.0035428   -3.0035428   -1.7116104  0.059372049   -3.0035428    1.2919324   537638 
 4646000   0.98155207   -3.0039308   -3.0039308   -1.7107735  0.059281832   -3.0039308    1.2931573   537627 
 4647000   0.98219654   -3.0035972   -3.0035972    -1.709562  0.068770612   -3.0035972    1.2940352   537615 
 4648000   0.98338683    -3.005532    -3.005532   -1.7098997  0.068115885    -3.005532    1.2956324   537603 
 4649000   0.98147758   -3.0031414   -3.0031414   -1.7099956  0.057385405   -3.0031414    1.2931457   537591 
 4650000   0.98303909   -3.0040581   -3.0040581   -1.7088285  0.059459933   -3.0040581    1.2952296   537580 
 4651000   0.98166093   -3.0032036   -3.0032036   -1.7097609  0.061890548   -3.0032036    1.2934427   537568 
 4652000   0.98206232   -3.0037988   -3.0037988   -1.7097984  0.062018676   -3.0037988    1.2940004   537556 
 4653000   0.98193474    -3.004638    -3.004638   -1.7107769  0.055317436    -3.004638    1.2938612   537544 
 4654000   0.98209878   -3.0050483   -3.0050483   -1.7109445  0.070646788   -3.0050483    1.2941038   537533 
 4655000   0.98226247   -3.0054712   -3.0054712   -1.7111228  0.067912653   -3.0054712    1.2943484   537521 
 4656000   0.98195703   -3.0058079   -3.0058079   -1.7118331   0.06168527   -3.0058079    1.2939748   537509 
 4657000   0.98129489   -3.0040176   -3.0040176   -1.7108865  0.068698656   -3.0040176    1.2931311   537497 
 4658000   0.98076741   -3.0040007   -3.0040007   -1.7115358   0.06646561   -3.0040007    1.2924649   537485 
 4659000   0.98152652   -3.0051817   -3.0051817   -1.7116899  0.071555626   -3.0051817    1.2934917   537474 
 4660000   0.98076715   -3.0032664   -3.0032664   -1.7107465  0.063744751   -3.0032664    1.2925199   537462 
 4661000   0.98285205   -3.0061269   -3.0061269   -1.7108305  0.067719331   -3.0061269    1.2952964   537450 
 4662000   0.98299391   -3.0062273   -3.0062273    -1.710715  0.068781935   -3.0062273    1.2955123   537438 
 4663000   0.98108625    -3.005014    -3.005014   -1.7119894     0.062974    -3.005014    1.2930246   537427 
[...]
23832000   0.50315133   -2.4225419   -2.4225419   -1.2799535  0.054708553   -2.4225419    1.1425884   311909 
23833000   0.50311598   -2.4228277   -2.4228277   -1.2802756  0.049337828   -2.4228277     1.142552   311897 
23834000    0.5018964   -2.4209773   -2.4209773    -1.281151  0.058253794   -2.4209773    1.1398263   311885 
23835000   0.50342614   -2.4243988   -2.4243988   -1.2810581   0.05015349   -2.4243988    1.1433407   311874 
23836000   0.50302574   -2.4228993   -2.4228993    -1.280424  0.050139125   -2.4228993    1.1424753   311862 
23837000   0.50341217    -2.424976    -2.424976    -1.281579  0.054292758    -2.424976     1.143397   311850 
23838000   0.50427408   -2.4261337   -2.4261337    -1.280735  0.052643347   -2.4261337    1.1453987   311838 
23839000   0.50496732   -2.4278036   -2.4278036   -1.2807898  0.054135356   -2.4278036    1.1470138   311827 
23840000   0.50370741   -2.4246432   -2.4246432   -1.2804473  0.051427117   -2.4246432     1.144196   311815 
23841000   0.50388077   -2.4256256   -2.4256256   -1.2809917  0.057208815   -2.4256256    1.1446338   311803 
23842000    0.5039675   -2.4262738   -2.4262738   -1.2813989   0.05938695   -2.4262738    1.1448749   311791 
23843000   0.50285037   -2.4256352   -2.4256352   -1.2832578  0.049271917   -2.4256352    1.1423774   311780 
23844000    0.5039282   -2.4252481   -2.4252481    -1.280378  0.053014417   -2.4252481    1.1448701   311768 
23845000   0.50351727   -2.4261107   -2.4261107   -1.2821302  0.055504756   -2.4261107    1.1439805   311756 
23846000   0.50322664   -2.4243142   -2.4243142   -1.2809499  0.053404073   -2.4243142    1.1433642   311744 
23847000    0.5032092   -2.4260254   -2.4260254   -1.2826605  0.053965919   -2.4260254     1.143365   311733 
23848000   0.50266923   -2.4213413   -2.4213413   -1.2791593  0.061665984   -2.4213413     1.142182   311721 
23849000   0.50282537   -2.4225591   -2.4225591   -1.2799783  0.058675448   -2.4225591    1.1425808   311709 
23850000   0.50267538   -2.4215334   -2.4215334   -1.2792495  0.057418765   -2.4215334    1.1422839   311697 
23851000   0.50350375   -2.4221144   -2.4221144    -1.277904  0.054502134   -2.4221144    1.1442104   311685 
23852000   0.50250098   -2.4194145   -2.4194145   -1.2774426  0.051806814   -2.4194145    1.1419719   311674 
23853000   0.50415376   -2.4227232   -2.4227232   -1.2769511  0.056035692   -2.4227232    1.1457721   311662 
23854000   0.50261734   -2.4185852   -2.4185852   -1.2762609  0.055130167   -2.4185852    1.1423243   311650 
23855000   0.50303626   -2.4197624   -2.4197624   -1.2764419  0.053876842   -2.4197624    1.1433204   311638 
23856000   0.50323249   -2.4195141   -2.4195141   -1.2757073  0.050833325   -2.4195141    1.1438068   311627 
23857000   0.50353605   -2.4210495   -2.4210495   -1.2765086  0.055658926   -2.4210495    1.1445408   311615 
23858000   0.50239141   -2.4196495   -2.4196495   -1.2776665   0.04922185   -2.4196495     1.141983   311603 
23859000   0.50171352   -2.4181612   -2.4181612   -1.2776751  0.055379022   -2.4181612     1.140486   311591 
23860000   0.50322445   -2.4221369   -2.4221369   -1.2781758  0.047103105   -2.4221369    1.1439611   311580 
23861000   0.50409392     -2.42013     -2.42013   -1.2741483  0.050544472     -2.42013    1.1459817   311568 
23862000   0.50352781   -2.4187405   -2.4187405   -1.2740016  0.057985205   -2.4187405    1.1447388   311556 
23863000   0.50294529   -2.4183015   -2.4183015   -1.2748429  0.061454154   -2.4183015    1.1434586   311544 
23864000   0.50234934   -2.4180651   -2.4180651   -1.2759212  0.049972074   -2.4180651     1.142144   311533 
23865000   0.50338453   -2.4181014   -2.4181014   -1.2735597  0.059711005   -2.4181014    1.1445417   311521 
23866000   0.50335086   -2.4189503   -2.4189503   -1.2744411  0.055633971   -2.4189503    1.1445092   311509 
23867000   0.50243951   -2.4182169   -2.4182169   -1.2757359  0.055999223   -2.4182169     1.142481   311497 
23868000   0.50171437   -2.4172774   -2.4172774   -1.2764013  0.052553831   -2.4172774    1.1408761   311485 
23869000   0.50398321   -2.4203215   -2.4203215   -1.2742456  0.054314118   -2.4203215    1.1460758   311474 
23870000   0.50180411   -2.4196511   -2.4196511   -1.2784867  0.050581254   -2.4196511    1.1411644   311462 
23871000   0.50123561   -2.4193332   -2.4193332   -1.2794177  0.048824891   -2.4193332    1.1399155   311450 
23872000   0.50367719   -2.4239394   -2.4239394   -1.2784271  0.046740493   -2.4239394    1.1455123   311438 
23873000   0.50193555    -2.422928    -2.422928   -1.2813364  0.058592259    -2.422928    1.1415916   311427 
23874000   0.50183941   -2.4216071   -2.4216071   -1.2801902  0.053160549   -2.4216071     1.141417   311415 
23875000   0.50140481     -2.42223     -2.42223   -1.2817576  0.049144919     -2.42223    1.1404724   311403 
23876000   0.50255882    -2.422212    -2.422212   -1.2790707   0.05843264    -2.422212    1.1431413   311391 
23877000   0.50410278   -2.4241633   -2.4241633   -1.2774696  0.058923172   -2.4241633    1.1466938   311380 
23878000   0.50398719    -2.425237    -2.425237   -1.2787619  0.057550773    -2.425237     1.146475   311368 
23879000   0.50326259   -2.4248009   -2.4248009   -1.2799301   0.05492264   -2.4248009    1.1448708   311356 
23880000   0.50184286   -2.4229005   -2.4229005   -1.2812154  0.046378959   -2.4229005    1.1416851   311344 
23881000   0.50237887   -2.4254494   -2.4254494   -1.2825045  0.049101611   -2.4254494    1.1429449   311333 
23882000   0.50295263    -2.424673    -2.424673   -1.2803787  0.053781428    -2.424673    1.1442943   311321 
23883000   0.50178014   -2.4215735   -2.4215735   -1.2799028  0.059821474   -2.4215735    1.1416707   311309 
23884000   0.50204042   -2.4230717   -2.4230717   -1.2807647  0.060257214   -2.4230717     1.142307   311297 
23885000   0.50212991   -2.4220217   -2.4220217   -1.2794671  0.051870672   -2.4220217    1.1425547   311285 
23886000   0.50313325   -2.4235593   -2.4235593   -1.2786812  0.051792848   -2.4235593    1.1448781   311274 
23887000   0.50237831   -2.4208534   -2.4208534   -1.2776491  0.059693789   -2.4208534    1.1432043   311262 
23888000   0.50185157    -2.423419    -2.423419   -1.2813693  0.049380215    -2.423419    1.1420497   311250 
23889000   0.50194999   -2.4215593   -2.4215593   -1.2792416  0.047726985   -2.4215593    1.1423177   311238 
23890000   0.50105483   -2.4198396   -2.4198396   -1.2795188  0.057140989   -2.4198396    1.1403209   311227 
23891000   0.50267735   -2.4207345   -2.4207345    -1.276677  0.046042494   -2.4207345    1.1440576   311215 
23892000   0.50301658   -2.4236795   -2.4236795   -1.2788058  0.048125679   -2.4236795    1.1448738   311203 
23893000   0.50302161   -2.4233349   -2.4233349   -1.2784055  0.054457001   -2.4233349    1.1449294   311191 
23894000   0.50209236   -2.4217185   -2.4217185   -1.2788638  0.056866591   -2.4217185    1.1428547   311180 
23895000   0.50228176    -2.421758    -2.421758   -1.2784281  0.059619779    -2.421758    1.1433299   311168 
23896000   0.50135197   -2.4214889   -2.4214889   -1.2802315  0.049500835   -2.4214889    1.1412575   311156 
23897000   0.50164172   -2.4230386   -2.4230386   -1.2810775  0.054256562   -2.4230386    1.1419611   311144 
23898000   0.50082475   -2.4222598   -2.4222598   -1.2821183  0.054681629   -2.4222598    1.1401416   311133 
23899000   0.50131946   -2.4236439   -2.4236439    -1.282332  0.053616851   -2.4236439    1.1413118   311121 
23900000   0.50133288   -2.4247231   -2.4247231   -1.2833367  0.050083329   -2.4247231    1.1413864   311109 
23901000   0.50114012   -2.4253728   -2.4253728   -1.2843813  0.058711472   -2.4253728    1.1409916   311097 
23902000   0.50093015   -2.4243311   -2.4243311   -1.2837736   0.05350387   -2.4243311    1.1405575   311085 
23903000   0.50241189   -2.4245542   -2.4245542   -1.2805825  0.056444398   -2.4245542    1.1439717   311074 
23904000   0.50177601   -2.4236879   -2.4236879     -1.28112  0.053627347   -2.4236879    1.1425679   311062 
23905000   0.50183956   -2.4233212   -2.4233212   -1.2805645  0.056993653   -2.4233212    1.1427567   311050 
23906000   0.50186004   -2.4255293   -2.4255293   -1.2826819  0.054766167   -2.4255293    1.1428474   311038 
23907000   0.50092353   -2.4238894   -2.4238894   -1.2831343  0.055320395   -2.4238894    1.1407551   311027 
23908000   0.50122978    -2.425149    -2.425149   -1.2836524  0.057359855    -2.425149    1.1414966   311015 
23909000   0.49993987   -2.4224565   -2.4224565   -1.2838536  0.059241845   -2.4224565    1.1386029   311003 
23910000   0.49921575   -2.4210558   -2.4210558   -1.2840582  0.050613388   -2.4210558    1.1369976   310991 
23911000   0.50091584   -2.4244094   -2.4244094   -1.2834994  0.060789685   -2.4244094      1.14091   310980 
23912000   0.50150233   -2.4254227   -2.4254227   -1.2831328  0.053698308   -2.4254227    1.1422899   310968 
23913000   0.50081509   -2.4243352   -2.4243352   -1.2835666  0.049638289   -2.4243352    1.1407686   310956 
23914000   0.50062718   -2.4217496   -2.4217496   -1.2813651   0.05029796   -2.4217496    1.1403845   310944 
23915000   0.50126959   -2.4224524   -2.4224524   -1.2805641  0.063358571   -2.4224524    1.1418883   310933 
23916000   0.50234657   -2.4248011   -2.4248011   -1.2804153  0.050020403   -2.4248011    1.1443858   310921 
23917000   0.50233459   -2.4239657   -2.4239657    -1.279563  0.064162659   -2.4239657    1.1444027   310909 
23918000   0.50120786   -2.4228628   -2.4228628   -1.2809829  0.059539408   -2.4228628    1.1418799   310897 
23919000    0.5014346    -2.422863    -2.422863   -1.2804225  0.053668761    -2.422863    1.1424406   310885 
23920000   0.50272354   -2.4265383   -2.4265383   -1.2811206  0.040631388   -2.4265383    1.1454177   310874 
23921000   0.50124389   -2.4219435   -2.4219435    -1.279853  0.049286496   -2.4219435    1.1420905   310862 
23922000   0.50258612   -2.4242594   -2.4242594   -1.2790664  0.059430295   -2.4242594     1.145193   310850 
23923000   0.50339616    -2.426282    -2.426282    -1.279199  0.054964856    -2.426282    1.1470831   310838 
23924000   0.50127269   -2.4230481   -2.4230481   -1.2807634  0.051249375   -2.4230481    1.1422848   310827 
23925000   0.49936706   -2.4188272   -2.4188272    -1.280841  0.052894473   -2.4188272    1.1379862   310815 
23926000    0.5008528   -2.4212628   -2.4212628   -1.2798468  0.059500971   -2.4212628    1.1414161   310803 
23927000   0.50049325   -2.4211347   -2.4211347    -1.280494  0.053462008   -2.4211347    1.1406407   310791 
23928000   0.50158217   -2.4215799   -2.4215799    -1.278417  0.055359039   -2.4215799    1.1431629   310780 
23929000   0.50022045   -2.4196911   -2.4196911   -1.2795877   0.05541756   -2.4196911    1.1401034   310768 
23930000   0.50094786   -2.4188599   -2.4188599   -1.2770545  0.062195968   -2.4188599    1.1418054   310756 
23931000   0.50108197   -2.4196284   -2.4196284   -1.2774732  0.057949957   -2.4196284    1.1421552   310744 
23932000   0.50072495   -2.4190317   -2.4190317   -1.2776499  0.056037655   -2.4190317    1.1413818   310733 
23933000   0.50127224   -2.4197089   -2.4197089   -1.2770354  0.052630751   -2.4197089    1.1426734   310721 
23934000   0.50130965   -2.4204593   -2.4204593   -1.2776565  0.054781917   -2.4204593    1.1428028   310709 
23935000   0.50105268   -2.4198462   -2.4198462    -1.277585  0.052869201   -2.4198462    1.1422612   310697 
23936000   0.50185118   -2.4195515   -2.4195515   -1.2754258  0.057740386   -2.4195515    1.1441257   310685 
23937000   0.50144384   -2.4190447   -2.4190447   -1.2758072  0.060932232   -2.4190447    1.1432375   310674 
23938000   0.50187609   -2.4187997   -2.4187997   -1.2745325   0.05370267   -2.4187997    1.1442672   310662 
23939000    0.5016129   -2.4192808   -2.4192808   -1.2755695  0.059146219   -2.4192808    1.1437113   310650 
23940000   0.50067242   -2.4171617   -2.4171617   -1.2755507  0.055978936   -2.4171617    1.1416111   310638 
23941000   0.50053941   -2.4157904   -2.4157904   -1.2744422  0.053260284   -2.4157904    1.1413482   310627 
23942000   0.50120175   -2.4176489   -2.4176489   -1.2747462  0.056202107   -2.4176489    1.1429026   310615 
23943000   0.50113203   -2.4171776   -2.4171776   -1.2743898  0.054238962   -2.4171776    1.1427878   310603 
23944000   0.50050995   -2.4162545   -2.4162545   -1.2748412  0.051825521   -2.4162545    1.1414133   310591 
23945000   0.50185288   -2.4182066   -2.4182066   -1.2736902  0.061747535   -2.4182066    1.1445164   310580 
23946000   0.50097185   -2.4177873   -2.4177873    -1.275236  0.051354872   -2.4177873    1.1425513   310568 
23947000   0.50054331   -2.4168319   -2.4168319   -1.2752139  0.057270413   -2.4168319     1.141618   310556 
23948000   0.49996164   -2.4159507   -2.4159507   -1.2756153   0.04795809   -2.4159507    1.1403354   310544 
23949000   0.49964647   -2.4166257   -2.4166257   -1.2769687  0.053362951   -2.4166257    1.1396569   310533 
23950000   0.50019318   -2.4158477   -2.4158477   -1.2748996  0.054941934   -2.4158477     1.140948   310521 
23951000   0.50133329   -2.4206674   -2.4206674   -1.2770745  0.049025586   -2.4206674    1.1435929   310509 
23952000   0.49965835   -2.4163699   -2.4163699   -1.2765537  0.053479421   -2.4163699    1.1398162   310497 
23953000   0.50071303   -2.4178855   -2.4178855   -1.2756193  0.049491362   -2.4178855    1.1422663   310485 
23954000   0.50042311   -2.4172505   -2.4172505   -1.2756052  0.049362958   -2.4172505    1.1416453   310474 
23955000   0.50036726   -2.4184397   -2.4184397   -1.2768776  0.055233658   -2.4184397     1.141562   310462 
23956000   0.50100188   -2.4216247   -2.4216247   -1.2785707  0.052288553   -2.4216247    1.1430541   310450 
23957000   0.50082282   -2.4199964   -2.4199964   -1.2773067  0.058653035   -2.4199964    1.1426897   310438 
23958000   0.50057984   -2.4201785   -2.4201785   -1.2780027  0.054185414   -2.4201785    1.1421758   310427 
23959000   0.50075883   -2.4224422   -2.4224422   -1.2798139  0.051128826   -2.4224422    1.1426283   310415 
23960000   0.50078567   -2.4238825   -2.4238825   -1.2811487  0.053810969   -2.4238825    1.1427338   310403 
23961000   0.50148272   -2.4244412   -2.4244412   -1.2800726  0.045451059   -2.4244412    1.1443686   310391 
23962000   0.50135859   -2.4246171   -2.4246171   -1.2804912  0.064197827   -2.4246171    1.1441259   310380 
23963000   0.50167993   -2.4245698   -2.4245698   -1.2796663  0.052510261   -2.4245698    1.1449035   310368 
23964000   0.50162767   -2.4227462   -2.4227462   -1.2779178  0.052928365   -2.4227462    1.1448285   310356 
23965000   0.50179221   -2.4236835   -2.4236835   -1.2784352  0.057464809   -2.4236835    1.1452483   310344 
23966000   0.50109408   -2.4241026   -2.4241026   -1.2804072  0.060615623   -2.4241026    1.1436954   310333 
23967000   0.50054351   -2.4226216   -2.4226216   -1.2801385  0.051589466   -2.4226216     1.142483   310321 
23968000   0.50086342   -2.4236274   -2.4236274     -1.28037    0.0544155   -2.4236274    1.1432574   310309 
23969000   0.50091981   -2.4219864   -2.4219864    -1.278556  0.060027307   -2.4219864    1.1434303   310297 
23970000   0.50114585   -2.4211919   -2.4211919   -1.2772013  0.051837229   -2.4211919    1.1439906   310285 
23971000   0.50068796   -2.4222677   -2.4222677   -1.2792818  0.050430094   -2.4222677    1.1429858   310274 
23972000   0.50142618   -2.4217912   -2.4217912   -1.2770758  0.049563697   -2.4217912    1.1447153   310262 
23973000   0.49967503   -2.4165321   -2.4165321   -1.2757703  0.045760435   -2.4165321    1.1407617   310250 
23974000   0.50130253   -2.4170688   -2.4170688   -1.2725473  0.053049345   -2.4170688    1.1445216   310238 
23975000    0.5008551   -2.4168841   -2.4168841   -1.2733435  0.044504401   -2.4168841    1.1435406   310227 
23976000   0.50110338   -2.4159716   -2.4159716   -1.2718199  0.056939764   -2.4159716    1.1441517   310215 
23977000   0.50076979   -2.4140969   -2.4140969   -1.2706626  0.058507292   -2.4140969    1.1434343   310203 
23978000   0.50197468   -2.4149064   -2.4149064   -1.2686766  0.055798775   -2.4149064    1.1462298   310191 
23979000    0.5015549   -2.4160909   -2.4160909    -1.270779  0.047599494   -2.4160909    1.1453119   310180 
23980000   0.50092255    -2.412703    -2.412703   -1.2687909  0.051861669    -2.412703    1.1439122   310168 
23981000   0.50057982   -2.4124631   -2.4124631   -1.2692894  0.059253141   -2.4124631    1.1431737   310156 
23982000   0.50034052    -2.412835    -2.412835   -1.2701636  0.050709725    -2.412835    1.1426714   310144 
23983000   0.49930305   -2.4103489   -2.4103489   -1.2700063  0.044317666   -2.4103489    1.1403425   310133 
23984000   0.49877489   -2.4103341   -2.4103341   -1.2711538  0.052699923   -2.4103341    1.1391804   310121 
23985000   0.49875469   -2.4104896   -2.4104896   -1.2713113   0.05354837   -2.4104896    1.1391783   310109 
23986000    0.4995736    -2.410544    -2.410544   -1.2694512  0.051717256    -2.410544    1.1410929   310097 
23987000   0.49955327   -2.4107332   -2.4107332   -1.2696426  0.050011275   -2.4107332    1.1410906   310085 
23988000   0.49966584   -2.4109839   -2.4109839   -1.2695956  0.052850425   -2.4109839    1.1413882   310074 
23989000   0.49981328   -2.4117199   -2.4117199   -1.2699507  0.051814797   -2.4117199    1.1417692   310062 
23990000   0.49997621   -2.4109518   -2.4109518   -1.2687662  0.050814228   -2.4109518    1.1421856   310050 
23991000   0.49957364   -2.4111646   -2.4111646   -1.2698545  0.052945764   -2.4111646    1.1413101   310038 
23992000   0.49980899   -2.4119713   -2.4119713   -1.2700829  0.056654423   -2.4119713    1.1418883   310027 
23993000    0.4987773   -2.4114573   -2.4114573    -1.271882  0.048099464   -2.4114573    1.1395754   310015 
23994000   0.50068623   -2.4141065   -2.4141065   -1.2701255   0.05548333   -2.4141065    1.1439811   310003 
23995000   0.50111809   -2.4156132   -2.4156132   -1.2706011  0.059943328   -2.4156132    1.1450121   309991 
23996000   0.50050452   -2.4152046   -2.4152046   -1.2715538  0.061699239   -2.4152046    1.1436507   309980 
23997000   0.49990312    -2.413877    -2.413877   -1.2715562  0.056576414    -2.413877    1.1423208   309968 
23998000   0.50055265   -2.4150398   -2.4150398   -1.2711905  0.058318646   -2.4150398    1.1438493   309956 
23999000   0.50132887   -2.4153861   -2.4153861   -1.2697187  0.051353585   -2.4153861    1.1456674   309944 
24000000   0.50027429   -2.4147063   -2.4147063   -1.2714083  0.048344287   -2.4147063     1.143298   309933 
Loop time of 31870.6 on 288 procs for 20000000 steps with 309933 atoms

Performance: 271096.216 tau/day, 627.538 timesteps/s
96.3% CPU use with 288 MPI tasks x 1 OpenMP threads

MPI task timing breakdown:
Section |  min time  |  avg time  |  max time  |%varavg|  %CPU | %total
-----------------------------------------------------------------------
Pair    | 2953.5     | 7250.3     | 9003       |1653.7 |  96.9 | 22.75
Bond    | 12.996     | 13.727     | 14.68      |   7.2 | 100.0 |  0.04
Neigh   | 2641.8     | 5998       | 7460.6     |1344.7 |  99.0 | 18.82
Comm    | 6963.6     | 11442      | 17709      |2043.4 |  95.7 | 35.90
Output  | 1051.4     | 1052.5     | 1054.5     |   2.9 |  93.6 |  3.30
Modify  | 4608.2     | 5743.7     | 8445.6     |1399.5 |  95.9 | 18.02
Other   |            | 370        |            |       |       |  1.16

Nlocal:        1076.16 ave        1534 max         759 min
Histogram: 8 19 35 80 87 24 21 6 5 3
Nghost:        4581.56 ave        9476 max         952 min
Histogram: 50 14 46 28 32 28 33 37 14 6
Neighs:        21502.1 ave       33152 max        3654 min
Histogram: 33 5 4 12 24 45 40 40 42 43

Total # of neighbors = 6192603
Ave neighs/atom = 19.980457
Ave special neighs/atom = 0.0000000
Neighbor list builds = 2117647
Dangerous builds = 1863529

Total wall time: 8:51:15
