#LAMMPS data file for empty space
0 atoms
0 bodies
0 atom types
0 80 xlo xhi
0 80 ylo yhi
0 160 zlo zhi
