LAMMPS (3 Mar 2020)
  using 1 OpenMP thread(s) per MPI task
####### Lammps input script for evaporating lj fluid ########

units 	       lj
dimension      3
newton 	       on
boundary       p p f
atom_style     body	rounded/polyhedron 1 20

###### Variables ######
#######################


variable        cut_inner  equal        0.7

variable        k_n        equal        100

variable        k_na       equal        -20

variable        k_na2      equal        1

variable        c_n        equal        10.0

variable        c_t        equal        10.0

variable        mu         equal        10.0

variable        A_ua       equal        1.0


variable       	epsilon    equal 	1

variable       	sigma      equal 	1

variable       	cutoff     equal 	3.5

variable        replic     equal        2


##### initialization ######
###########################


read_data   	data.spheres_all 	group	lj	extra/atom/types 1
Reading data file ...
  orthogonal box = (0 0 0) to (40 40 40)
  4 by 4 by 4 MPI processor grid
  reading atoms ...
  8000 atoms
  8000 bodies
  read_data CPU = 0.122859 secs

region		cubeSpace	block 10 30 10 30 10 30

delete_atoms 	region 		cubeSpace  compress yes
Deleted 1000 atoms, new total = 7000

read_data   	data.cubes 	group	cubes	add	append
Reading data file ...
  orthogonal box = (0 0 0) to (40 40 40)
  4 by 4 by 4 MPI processor grid
  reading atoms ...
  1 atoms
  1 bodies
  read_data CPU = 0.00920943 secs

replicate 	${replic} ${replic} ${replic}
replicate 	2 ${replic} ${replic}
replicate 	2 2 ${replic}
replicate 	2 2 2
Replicating atoms ...
WARNING: Replicating in a non-periodic dimension (src/replicate.cpp:72)
  orthogonal box = (0 0 0) to (80 80 80)
  4 by 4 by 4 MPI processor grid
  56008 atoms
  replicate CPU = 0.316912 secs

read_data	data.vac 	add append
Reading data file ...
  orthogonal box = (0 0 0) to (80 80 160)
  2 by 4 by 8 MPI processor grid
  read_data CPU = 0.0355811 secs




##### potential parameters ######
#################################

pair_style      hybrid                 body/rounded/polyhedron ${c_n} ${c_t} ${mu} ${A_ua} ${cut_inner}                 lj/cut ${cutoff}
pair_style      hybrid                 body/rounded/polyhedron 10 ${c_t} ${mu} ${A_ua} ${cut_inner}                 lj/cut ${cutoff}
pair_style      hybrid                 body/rounded/polyhedron 10 10 ${mu} ${A_ua} ${cut_inner}                 lj/cut ${cutoff}
pair_style      hybrid                 body/rounded/polyhedron 10 10 10 ${A_ua} ${cut_inner}                 lj/cut ${cutoff}
pair_style      hybrid                 body/rounded/polyhedron 10 10 10 1 ${cut_inner}                 lj/cut ${cutoff}
pair_style      hybrid                 body/rounded/polyhedron 10 10 10 1 0.7                 lj/cut ${cutoff}
pair_style      hybrid                 body/rounded/polyhedron 10 10 10 1 0.7                 lj/cut 3.5


pair_coeff      * * body/rounded/polyhedron ${k_n} ${k_na}
pair_coeff      * * body/rounded/polyhedron 100 ${k_na}
pair_coeff      * * body/rounded/polyhedron 100 -20

pair_coeff      1 1 lj/cut ${epsilon} ${sigma}
pair_coeff      1 1 lj/cut 1 ${sigma}
pair_coeff      1 1 lj/cut 1 1

pair_modify     pair lj/cut shift yes


##### simulation settings #########
###################################


comm_modify    vel	yes

neighbor       0.5	bin

neigh_modify   every 1 delay 0 check yes

timestep       0.005


######## fixes ###########
##########################


fix	       1 all nvt/body temp 0.5 0.75 1.0


variable       epsilonWall equal 2*${epsilon}
variable       epsilonWall equal 2*1

variable       cutoffTop   equal   0.7147*${sigma}
variable       cutoffTop   equal   0.7147*1

variable       cutoffLow   equal   3*${sigma}
variable       cutoffLow   equal   3*1


fix            topWall all wall/lj93 zhi EDGE                ${epsilonWall} ${sigma} ${cutoffTop} units box
fix            topWall all wall/lj93 zhi EDGE                2 ${sigma} ${cutoffTop} units box
fix            topWall all wall/lj93 zhi EDGE                2 1 ${cutoffTop} units box
fix            topWall all wall/lj93 zhi EDGE                2 1 0.7147 units box

fix            lowWall all wall/lj93 zlo EDGE                ${epsilonWall} ${sigma} ${cutoffLow} units box
fix            lowWall all wall/lj93 zlo EDGE                2 ${sigma} ${cutoffLow} units box
fix            lowWall all wall/lj93 zlo EDGE                2 1 ${cutoffLow} units box
fix            lowWall all wall/lj93 zlo EDGE                2 1 3 units box


######## computes ########

######## dumps ###########
##########################


dump         image all image 1000 image.*.png type type              zoom 1.0 body type 0 0              view 90 0 size 1920 1080 box yes 0.01

dump         movie all movie 1000 movie.avi type type              zoom 1.0 adiam 10.0 body type 0 0 view 60 15              axes no 1.0 0.01 box yes 0.01 size 1920 1080

dump 	     pos  cubes	 xyz  100 dump.xyz


####### final setup #######
###########################


velocity      	    all create 0.1 78994

thermo_style  	    custom step temp etotal pe ke press vol density

thermo 	      	    100

run_style	    verlet

run 		    1000000
Neighbor list info ...
  update every 1 steps, delay 0 steps, check yes
  max neighbors/atom: 2000, page size: 100000
  master list distance cutoff = 9.16025
  ghost atom cutoff = 9.16025
  binsize = 4.58013, bins = 18 18 35
  3 neighbor lists, perpetual/occasional/extra = 3 0 0
  (1) pair body/rounded/polyhedron, perpetual, skip from (3)
      attributes: half, newton on
      pair build: skip
      stencil: none
      bin: none
  (2) pair lj/cut, perpetual, skip from (3)
      attributes: half, newton on
      pair build: skip
      stencil: none
      bin: none
  (3) neighbor class addition, perpetual
      attributes: half, newton on
      pair build: half/bin/atomonly/newton
      stencil: half/bin/3d/newton
      bin: standard
Setting up Verlet run ...
  Unit style    : lj
  Current step  : 0
  Time step     : 0.005
Per MPI rank memory allocation (min/avg/max) = 6.78 | 14.76 | 22.67 Mbytes
Step Temp TotEng PotEng KinEng Press Volume Density 
       0          0.1 -0.056473954  -0.20647128   0.14999732 -0.019739018      1024000       0.0625 
     100   0.14466566 -0.040205085  -0.25719971   0.21699462  -0.02186732      1024000       0.0625 
     200   0.33486869 -0.021552966  -0.52384703   0.50229407 0.0047369338      1024000       0.0625 
     300      0.48318  0.026803476  -0.69795358   0.72475705 0.0050547438      1024000       0.0625 
     400   0.57758017  0.079978822  -0.78637597   0.86635479 0.0074546724      1024000       0.0625 
     500   0.66454026   0.14084023  -0.85595236    0.9967926  0.010971001      1024000       0.0625 
     600   0.73998282   0.20466252   -0.9052919    1.1099544  0.014125139      1024000       0.0625 
     700   0.80524452    0.2695442  -0.93830101    1.2078452  0.017635172      1024000       0.0625 
     800   0.85787818   0.33517096  -0.95162333    1.2867943  0.019952904      1024000       0.0625 
     900   0.90451226   0.39641574  -0.96032842    1.3567442  0.023138058      1024000       0.0625 
    1000   0.94499743   0.45383148  -0.96363936    1.4174708   0.02434052      1024000       0.0625 
    1100   0.97928898    0.5042457  -0.96466155    1.4689072  0.027159833      1024000       0.0625 
    1200    1.0050918   0.54371047  -0.96390037    1.5076108   0.02901079      1024000       0.0625 
    1300    1.0186993   0.57142669  -0.95659502    1.5280217  0.030275995      1024000       0.0625 
    1400    1.0222282   0.58463923  -0.94867574     1.533315  0.030712533      1024000       0.0625 
    1500    1.0224759    0.5799008  -0.95378569    1.5336865  0.029224194      1024000       0.0625 
    1600    1.0099092   0.56505175  -0.94978506    1.5148368  0.028803788      1024000       0.0625 
    1700   0.99743054   0.54356893  -0.95255017    1.4961191  0.029376423      1024000       0.0625 
    1800   0.99479371   0.53157934  -0.96058457    1.4921639   0.02868664      1024000       0.0625 
    1900   0.99260152   0.52260451  -0.96627119    1.4888757  0.028626152      1024000       0.0625 
    2000   0.99138154   0.51564418  -0.97140157    1.4870458  0.028249988      1024000       0.0625 
    2100   0.99624439   0.51913642  -0.97520349    1.4943399  0.027587511      1024000       0.0625 
    2200    1.0010832   0.52437668  -0.97722129     1.501598  0.028494181      1024000       0.0625 
    2300    1.0062786   0.53724101  -0.97214991    1.5093909  0.028492661      1024000       0.0625 
    2400    1.0125297   0.54686741  -0.97190003    1.5187674   0.02980848      1024000       0.0625 
    2500    1.0121969   0.54654371  -0.97172448    1.5182682  0.029883195      1024000       0.0625 
    2600    1.0054628   0.53320856  -0.97495873    1.5081673  0.030348616      1024000       0.0625 
    2700    1.0020029   0.52214396  -0.98083355    1.5029775  0.029541405      1024000       0.0625 
    2800   0.99953333   0.51649577  -0.98277746    1.4992732  0.029904167      1024000       0.0625 
    2900   0.99453074    0.5030792  -0.98869027    1.4917695  0.028598239      1024000       0.0625 
    3000   0.99462511   0.49968522   -0.9922258     1.491911  0.028262649      1024000       0.0625 
    3100   0.99560067   0.50386683  -0.98950751    1.4933743  0.029696107      1024000       0.0625 
    3200    1.0004563   0.51093059  -0.98972709    1.5006577  0.028792252      1024000       0.0625 
    3300    1.0058531   0.51732401  -0.99142877    1.5087528   0.02967129      1024000       0.0625 
    3400    1.0088533   0.52928734  -0.98396566     1.513253  0.030458323      1024000       0.0625 
    3500    1.0083369   0.52121569  -0.99126265    1.5124783  0.029168319      1024000       0.0625 
    3600    1.0028589   0.51082007  -0.99344141    1.5042615  0.029089067      1024000       0.0625 
    3700    1.0020986   0.50752609  -0.99559504    1.5031211  0.028913005      1024000       0.0625 
    3800   0.99909857   0.50143043  -0.99719066    1.4986211  0.029852702      1024000       0.0625 
    3900   0.99636816   0.50038323  -0.99414233    1.4945256   0.02896051      1024000       0.0625 
    4000   0.99740962   0.49432459   -1.0017631    1.4960877  0.029559342      1024000       0.0625 
    4100   0.99783991   0.49233457   -1.0043986    1.4967331  0.028090643      1024000       0.0625 
    4200    1.0029215   0.49617523   -1.0081802    1.5043554  0.029067277      1024000       0.0625 
    4300    1.0015082   0.50306448  -0.99917105    1.5022355  0.030019533      1024000       0.0625 
    4400    1.0060524   0.50938637  -0.99966527    1.5090516  0.030339304      1024000       0.0625 
    4500    1.0053637   0.50553251   -1.0024861    1.5080186  0.029258858      1024000       0.0625 
    4600    1.0047317   0.50442396   -1.0026467    1.5070707  0.030493448      1024000       0.0625 
    4700   0.99902253   0.49756717   -1.0009399     1.498507  0.029814937      1024000       0.0625 
    4800   0.99831991   0.49725997   -1.0001932    1.4974531  0.030227191      1024000       0.0625 
    4900   0.99907477   0.49819808   -1.0003873    1.4985854  0.029278473      1024000       0.0625 
    5000    1.0031838   0.50185088   -1.0028979    1.5047488  0.030591816      1024000       0.0625 
    5100    1.0038612   0.50036595    -1.005399    1.5057649  0.029114581      1024000       0.0625 
    5200    1.0033885   0.50196614   -1.0030897    1.5050558  0.029838078      1024000       0.0625 
    5300     1.001848   0.50069355   -1.0020517    1.5027452  0.029696059      1024000       0.0625 
    5400    1.0012913    0.5017146   -1.0001955    1.5019101  0.028655731      1024000       0.0625 
    5500    1.0050904   0.50726312   -1.0003455    1.5076087  0.030247495      1024000       0.0625 
    5600    1.0026399   0.50528297  -0.99864995    1.5039329  0.029661605      1024000       0.0625 
    5700    1.0039079   0.50256158   -1.0032734     1.505835   0.03026602      1024000       0.0625 
    5800    1.0027224   0.50084433   -1.0032124    1.5040568  0.029868731      1024000       0.0625 
    5900    1.0022982   0.50416455  -0.99925598    1.5034205  0.028790725      1024000       0.0625 
    6000    1.0036935   0.49798197   -1.0075314    1.5055134  0.028590423      1024000       0.0625 
    6100    1.0026813   0.49662161   -1.0073735    1.5039951  0.029787313      1024000       0.0625 
    6200    1.0003453   0.49520252   -1.0052886    1.5004911  0.028749278      1024000       0.0625 
    6300    1.0054669   0.49990221   -1.0082712    1.5081734  0.028771718      1024000       0.0625 
    6400    1.0078694   0.50262477   -1.0091524    1.5117772  0.030161716      1024000       0.0625 
    6500     1.007379   0.50091644   -1.0101252    1.5110416  0.029945405      1024000       0.0625 
    6600    1.0005441   0.49149157   -1.0092978    1.5007893  0.029806276      1024000       0.0625 
    6700    1.0001814   0.50109355  -0.99915179    1.5002453  0.030282877      1024000       0.0625 
    6800    1.0026834   0.49000671   -1.0139916    1.5039983  0.029451722      1024000       0.0625 
    6900     1.001162    0.4920746   -1.0096416    1.5017162  0.030219516      1024000       0.0625 
    7000    1.0034271    0.4943047   -1.0108091    1.5051138  0.029519584      1024000       0.0625 
    7100    1.0063564   0.49453127   -1.0149764    1.5095077  0.030278624      1024000       0.0625 
    7200    1.0066408   0.49486731   -1.0150669    1.5099342  0.029640369      1024000       0.0625 
    7300    1.0035403   0.49268745   -1.0125962    1.5052836  0.029927975      1024000       0.0625 
    7400    1.0005731   0.49255725   -1.0082755    1.5008328  0.029182534      1024000       0.0625 
    7500    1.0033943   0.49286241   -1.0122021    1.5050645  0.030999665      1024000       0.0625 
    7600    1.0037573   0.49276071   -1.0128484    1.5056091  0.030159203      1024000       0.0625 
    7700    1.0049969   0.49170514   -1.0157633    1.5074684  0.029327341      1024000       0.0625 
    7800    1.0043542   0.49433743    -1.012167    1.5065044  0.030662642      1024000       0.0625 
    7900    1.0027453   0.49391892   -1.0101721     1.504091  0.030039059      1024000       0.0625 
    8000    1.0025595   0.49187519   -1.0119372    1.5038124  0.030682105      1024000       0.0625 
    8100    1.0045389   0.48982085   -1.0169606    1.5067814  0.030185526      1024000       0.0625 
    8200    1.0041811   0.48810225   -1.0181426    1.5062448  0.030182019      1024000       0.0625 
    8300    1.0032406   0.48715445   -1.0176796    1.5048341  0.029964698      1024000       0.0625 
    8400     1.003416   0.49002631   -1.0150708    1.5050971  0.030756272      1024000       0.0625 
    8500     1.002587   0.48542858    -1.018425    1.5038536  0.030599308      1024000       0.0625 
    8600    1.0025116   0.48881715   -1.0149234    1.5037406  0.030516078      1024000       0.0625 
    8700     1.003113   0.48703013   -1.0176126    1.5046427  0.029803701      1024000       0.0625 
    8800    1.0041681   0.49211579   -1.0141094    1.5062252  0.030599269      1024000       0.0625 
    8900    1.0060299   0.50019364   -1.0088243    1.5090179  0.031423799      1024000       0.0625 
    9000    1.0051922   0.49670511   -1.0110562    1.5077613  0.030241397      1024000       0.0625 
    9100    1.0058102   0.50779911   -1.0008892    1.5086883  0.030456358      1024000       0.0625 
    9200    1.0052936   0.50061522   -1.0072983    1.5079135  0.030700871      1024000       0.0625 
    9300    1.0039746   0.50659877   -0.9993363    1.5059351   0.03136891      1024000       0.0625 
    9400    1.0032054   0.49758485   -1.0071964    1.5047812   0.02939103      1024000       0.0625 
    9500    1.0023931   0.50260256   -1.0009603    1.5035628  0.030992855      1024000       0.0625 
    9600     1.003305   0.49982339   -1.0051072    1.5049306  0.030464232      1024000       0.0625 
    9700    1.0093296   0.50454584   -1.0094216    1.5139674  0.030483214      1024000       0.0625 
    9800    1.0080875   0.50574601   -1.0063582    1.5121042  0.031452784      1024000       0.0625 
    9900    1.0057381   0.50410119    -1.004479    1.5085802  0.031574059      1024000       0.0625 
   10000    1.0058086    0.4951993   -1.0134867     1.508686  0.031590487      1024000       0.0625 
   10100    1.0004653   0.49220785   -1.0084632    1.5006711  0.029951346      1024000       0.0625 
   10200    1.0014294   0.49455909   -1.0075581    1.5021172  0.031643942      1024000       0.0625 
   10300    1.0017716   0.49397668   -1.0086539    1.5026306  0.031473024      1024000       0.0625 
   10400    1.0042196   0.50009718   -1.0062053    1.5063025  0.031153336      1024000       0.0625 
   10500    1.0094709   0.50341524   -1.0107641    1.5141794  0.030330734      1024000       0.0625 
   10600    1.0103479   0.50744675    -1.008048    1.5154947  0.030424564      1024000       0.0625 
   10700    1.0074268   0.50628384   -1.0048294    1.5111133  0.031781356      1024000       0.0625 
   10800    1.0071185   0.50198596   -1.0086649    1.5106509  0.031338619      1024000       0.0625 
   10900    1.0013114   0.50055432   -1.0013859    1.5019402  0.030600327      1024000       0.0625 
   11000    1.0033384   0.50123575    -1.003745    1.5049807  0.030915789      1024000       0.0625 
   11100    1.0036638   0.50132198   -1.0041469    1.5054689  0.030715968      1024000       0.0625 
   11200       1.0068   0.50674102    -1.003432     1.510173  0.031893033      1024000       0.0625 
   11300    1.0071503   0.50395901   -1.0067395    1.5106985  0.031700828      1024000       0.0625 
   11400    1.0069092   0.50244875   -1.0078881    1.5103369   0.03153171      1024000       0.0625 
   11500    1.0010604   0.50061334   -1.0009505    1.5015639  0.030648223      1024000       0.0625 
   11600    1.0056279   0.50298695    -1.005428     1.508415  0.030816857      1024000       0.0625 
   11700     1.008104   0.50567104   -1.0064579     1.512129  0.031941263      1024000       0.0625 
   11800    1.0067059   0.50361537   -1.0064166     1.510032  0.031459861      1024000       0.0625 
   11900    1.0071783   0.50664292   -1.0040975    1.5107404  0.031143132      1024000       0.0625 
   12000    1.0054748   0.50920614  -0.99897908    1.5081852   0.03175597      1024000       0.0625 
   12100    1.0028637   0.50819384  -0.99607484    1.5042687  0.030926153      1024000       0.0625 
   12200    1.0040932    0.5162192  -0.98989374    1.5061129   0.03127124      1024000       0.0625 
   12300    1.0091808   0.51101749   -1.0027267    1.5137442  0.032119206      1024000       0.0625 
   12400    1.0090896   0.51621187  -0.99739551    1.5136074  0.031945233      1024000       0.0625 
   12500     1.006935   0.51379428  -0.99658118    1.5103755  0.031675326      1024000       0.0625 
   12600    1.0076501   0.51427969  -0.99716841    1.5114481  0.031508349      1024000       0.0625 
   12700    1.0039195   0.51892278  -0.98692958    1.5058524  0.033217689      1024000       0.0625 
   12800    1.0043607   0.50735721  -0.99915687    1.5065141  0.031751996      1024000       0.0625 
   12900    1.0055628   0.51557308  -0.99274417    1.5083172  0.032254379      1024000       0.0625 
   13000    1.0074056   0.51945705   -0.9916243    1.5110814  0.031825047      1024000       0.0625 
   13100    1.0071651   0.51402278  -0.99669788    1.5107207  0.032337078      1024000       0.0625 
   13200    1.0063381   0.51330183  -0.99617843    1.5094803  0.031676075      1024000       0.0625 
   13300    1.0030537   0.51369399  -0.99085967    1.5045537  0.032015519      1024000       0.0625 
   13400    1.0057449   0.51975932  -0.98883117    1.5085905  0.031243054      1024000       0.0625 
   13500    1.0053844   0.53141062  -0.97663911    1.5080497  0.033237549      1024000       0.0625 
   13600    1.0101094   0.52969416   -0.9854429    1.5151371  0.032473522      1024000       0.0625 
   13700    1.0106743   0.53606611  -0.97991827    1.5159844   0.03221281      1024000       0.0625 
   13800    1.0128305   0.53617625  -0.98304238    1.5192186  0.032713197      1024000       0.0625 
   13900    1.0125621   0.53540682  -0.98340918     1.518816   0.03303319      1024000       0.0625 
   14000    1.0028425   0.52484939  -0.97938754    1.5042369  0.031153785      1024000       0.0625 
   14100    1.0008651   0.51950854  -0.98176226    1.5012708  0.031717069      1024000       0.0625 
   14200    1.0046625   0.52267282    -0.984294    1.5069668  0.032299585      1024000       0.0625 
   14300    1.0071672   0.52484892  -0.98587498    1.5107239  0.032074065      1024000       0.0625 
   14400     1.005486   0.53005378  -0.97814835    1.5082021  0.031935674      1024000       0.0625 
   14500    1.0106736   0.53707238  -0.97891097    1.5159834  0.034052452      1024000       0.0625 
   14600    1.0117169   0.53441206  -0.98313615    1.5175482  0.032281886      1024000       0.0625 
   14700     1.005451   0.53011611  -0.97803351    1.5081496  0.032626564      1024000       0.0625 
   14800    1.0031891   0.52968374  -0.97507303    1.5047568  0.031697174      1024000       0.0625 
   14900    1.0028316   0.52961152  -0.97460897    1.5042205   0.03306804      1024000       0.0625 
   15000    1.0079386   0.53600926  -0.97587159    1.5118808  0.032779519      1024000       0.0625 
   15100    1.0126121    0.5393462   -0.9795449    1.5188911  0.032414081      1024000       0.0625 
   15200    1.0102294   0.54412598  -0.97119101     1.515317  0.033203424      1024000       0.0625 
   15300    1.0087528   0.53589353  -0.97720872    1.5131023  0.033234884      1024000       0.0625 
   15400    1.0073831   0.52884466  -0.98220307    1.5110477  0.032954725      1024000       0.0625 
   15500    1.0046213   0.52842027  -0.97848472     1.506905  0.032587988      1024000       0.0625 
   15600   0.99914175   0.52494337  -0.97374249    1.4986859   0.03215165      1024000       0.0625 
   15700    1.0030397   0.52699701  -0.97753566    1.5045327  0.033522193      1024000       0.0625 
   15800    1.0076062   0.53656132  -0.97482097    1.5113823   0.03211959      1024000       0.0625 
   15900    1.0127097   0.54062565  -0.97841178    1.5190374  0.032915849      1024000       0.0625 
   16000    1.0118649   0.54413731  -0.97363291    1.5177702  0.033394861      1024000       0.0625 
   16100    1.0124835   0.54563135  -0.97306672    1.5186981  0.033229095      1024000       0.0625 
   16200    1.0107233    0.5442173  -0.97184054    1.5160578  0.033481517      1024000       0.0625 
   16300     1.009025   0.54056948  -0.97294094    1.5135104  0.032488584      1024000       0.0625 
   16400    1.0019222   0.54011978  -0.96273675    1.5028565  0.033119782      1024000       0.0625 
   16500    1.0016432   0.53569984  -0.96673817     1.502438  0.032146517      1024000       0.0625 
   16600    1.0079558    0.5475795  -0.96432718    1.5119067  0.033819734      1024000       0.0625 
   16700    1.0092348   0.54497835  -0.96884678    1.5138251  0.033708893      1024000       0.0625 
   16800    1.0078256   0.55206551  -0.95964594    1.5117114  0.033827098      1024000       0.0625 
   16900    1.0109552   0.55132303  -0.96508277    1.5164058  0.033522457      1024000       0.0625 
   17000       1.0116   0.54990687  -0.96746603    1.5173729  0.033205292      1024000       0.0625 
   17100    1.0095769    0.5554655  -0.95887276    1.5143383  0.033394514      1024000       0.0625 
   17200    1.0061064   0.54709233  -0.96204027    1.5091326  0.033909065      1024000       0.0625 
   17300     1.005897   0.54289686  -0.96592166    1.5088185  0.032143286      1024000       0.0625 
   17400    1.0025902   0.54322755  -0.96063091    1.5038585  0.032638418      1024000       0.0625 
   17500    1.0072883   0.54708773  -0.96381769    1.5109054  0.033307206      1024000       0.0625 
   17600    1.0080156   0.55153545  -0.96046099    1.5119964   0.03454662      1024000       0.0625 
   17700    1.0102714   0.56079232  -0.95458776    1.5153801  0.033910419      1024000       0.0625 
   17800      1.01207    0.5610445  -0.95703337    1.5180779  0.033987704      1024000       0.0625 
   17900    1.0130672   0.56426355  -0.95531013    1.5195737  0.033901581      1024000       0.0625 
   18000    1.0087403   0.57058015  -0.94250324    1.5130834   0.03340499      1024000       0.0625 
   18100    1.0048412   0.55676262  -0.95047221    1.5072348  0.033092217      1024000       0.0625 
   18200    1.0030961   0.55663355  -0.94798371    1.5046173  0.033764771      1024000       0.0625 
   18300    1.0063365   0.56152537  -0.94795238    1.5094777  0.033947848      1024000       0.0625 
   18400    1.0102685   0.56831452  -0.94706121    1.5153757  0.035098901      1024000       0.0625 
   18500    1.0148245   0.57281157  -0.94939794    1.5222095   0.03453098      1024000       0.0625 
   18600    1.0106901    0.5730536  -0.94295446    1.5160081  0.033695178      1024000       0.0625 
   18700    1.0122958   0.57378839  -0.94462826    1.5184166  0.034390666      1024000       0.0625 
   18800    1.0114394   0.56902335  -0.94810869     1.517132  0.034047954      1024000       0.0625 
   18900    1.0079698   0.56882254  -0.94310513    1.5119277  0.034107069      1024000       0.0625 
   19000    1.0029677   0.56215746   -0.9422672    1.5044247  0.032693776      1024000       0.0625 
   19100    1.0020636   0.56076749  -0.94230105    1.5030685  0.032654382      1024000       0.0625 
   19200    1.0073282    0.5707963  -0.94016895    1.5109653  0.034571271      1024000       0.0625 
   19300    1.0130354   0.58763469  -0.93189122    1.5195259  0.033917269      1024000       0.0625 
   19400    1.0157326   0.58876617  -0.93480549    1.5235717  0.035409344      1024000       0.0625 
   19500    1.0126073   0.58991648  -0.92896733    1.5188838  0.033813067      1024000       0.0625 
   19600    1.0127874   0.59060761  -0.92854635     1.519154  0.035078907      1024000       0.0625 
   19700    1.0110595   0.58722526   -0.9293369    1.5165622  0.035542669      1024000       0.0625 
   19800    1.0066843   0.58193039  -0.92806904    1.5099994  0.034139492      1024000       0.0625 
   19900    1.0053064    0.5826883  -0.92524441    1.5079327  0.035026012      1024000       0.0625 
   20000    1.0067029   0.58324906  -0.92677828    1.5100273  0.035187121      1024000       0.0625 
   20100    1.0086366   0.58460302  -0.92832494     1.512928  0.034387161      1024000       0.0625 
   20200    1.0080846   0.59158613  -0.92051381    1.5120999  0.034957032      1024000       0.0625 
   20300    1.0102057   0.59199499  -0.92328644    1.5152814  0.033573383      1024000       0.0625 
   20400    1.0091306   0.59381729  -0.91985162    1.5136689  0.035127075      1024000       0.0625 
   20500    1.0154403   0.60426654  -0.91886669    1.5231332  0.034688692      1024000       0.0625 
   20600    1.0150852   0.60012076  -0.92247993    1.5226007  0.034596194      1024000       0.0625 
   20700     1.012052   0.59665875  -0.92139221     1.518051  0.033908261      1024000       0.0625 
   20800    1.0104017   0.59695328  -0.91862223    1.5155755  0.035527687      1024000       0.0625 
   20900    1.0074927   0.59271793  -0.91849414    1.5112121  0.033704249      1024000       0.0625 
   21000    1.0076964   0.59072175  -0.92079586    1.5115176   0.03483883      1024000       0.0625 
   21100    1.0082677   0.59640504  -0.91596944    1.5123745  0.034734851      1024000       0.0625 
   21200    1.0081045   0.59345149  -0.91867826    1.5121297  0.034421657      1024000       0.0625 
   21300    1.0123142   0.59615044   -0.9222938    1.5184442   0.03490428      1024000       0.0625 
   21400    1.0133423   0.60360344  -0.91638289    1.5199863  0.034732218      1024000       0.0625 
   21500    1.0107145   0.60442299  -0.91162176    1.5160448  0.034293375      1024000       0.0625 
   21600    1.0142993    0.6071636  -0.91425825    1.5214219  0.035325831      1024000       0.0625 
   21700    1.0131559   0.60488526  -0.91482152    1.5197068   0.03467687      1024000       0.0625 
   21800    1.0114023   0.60152588  -0.91555044    1.5170763  0.035264523      1024000       0.0625 
   21900    1.0092355   0.59786021  -0.91596602    1.5138262  0.034749731      1024000       0.0625 
   22000    1.0062071    0.5937125  -0.91557118    1.5092837   0.03497317      1024000       0.0625 
   22100    1.0080291   0.59427826  -0.91773839    1.5120166  0.034328143      1024000       0.0625 
   22200    1.0060913   0.60349811   -0.9056119      1.50911  0.036353048      1024000       0.0625 
   22300    1.0092131   0.60451501  -0.90927757    1.5137926  0.034635958      1024000       0.0625 
   22400    1.0105869   0.61191819  -0.90393514    1.5158533  0.036154804      1024000       0.0625 
   22500    1.0165577   0.62097004  -0.90383925    1.5248093  0.035498363      1024000       0.0625 
   22600    1.0163263   0.62460337  -0.89985881    1.5244622  0.035810594      1024000       0.0625 
   22700    1.0140363   0.62065143  -0.90037588    1.5210273  0.035239047      1024000       0.0625 
   22800    1.0105076   0.62626795  -0.88946632    1.5157343  0.036134253      1024000       0.0625 
   22900     1.010428   0.61912552  -0.89648946     1.515615  0.034717765      1024000       0.0625 
   23000    1.0088373   0.61790801  -0.89532094     1.513229  0.035485062      1024000       0.0625 
   23100    1.0070809   0.61571089  -0.89488352    1.5105944  0.035884617      1024000       0.0625 
   23200    1.0099747   0.61741768  -0.89751739    1.5149351  0.036076563      1024000       0.0625 
   23300    1.0129837   0.62789639    -0.891552    1.5194484  0.035803669      1024000       0.0625 
   23400    1.0125263     0.624404  -0.89435826    1.5187623  0.036377752      1024000       0.0625 
   23500     1.010282    0.6232127  -0.89218322    1.5153959  0.035130408      1024000       0.0625 
   23600    1.0104264   0.62830143  -0.88731116    1.5156126   0.03550571      1024000       0.0625 
   23700     1.012068   0.63148509  -0.88658985    1.5180749  0.036327748      1024000       0.0625 
   23800    1.0141888   0.63428805  -0.88696801    1.5212561  0.036636619      1024000       0.0625 
   23900    1.0135354   0.62695095  -0.89332493    1.5202759  0.035999257      1024000       0.0625 
   24000    1.0110115   0.62372316  -0.89276706    1.5164902  0.035359308      1024000       0.0625 
   24100    1.0062688   0.62246862  -0.88690758    1.5093762  0.035136257      1024000       0.0625 
   24200    1.0085019   0.62115607  -0.89156974    1.5127258  0.034862835      1024000       0.0625 
   24300    1.0100833   0.62639154  -0.88870633    1.5150979  0.036426487      1024000       0.0625 
   24400    1.0101182   0.63012744  -0.88502286    1.5151503  0.035978477      1024000       0.0625 
   24500    1.0122029   0.64130223  -0.87697496    1.5182772  0.035711863      1024000       0.0625 
   24600    1.0173647   0.64870765  -0.87731219    1.5260198  0.037350863      1024000       0.0625 
   24700    1.0145428   0.64827411  -0.87351286     1.521787  0.036981574      1024000       0.0625 
   24800    1.0116546    0.6452039  -0.87225085    1.5174548  0.036851567      1024000       0.0625 
   24900    1.0097513   0.64390169  -0.87069819    1.5145999  0.036038925      1024000       0.0625 
   25000     1.010018   0.64475735  -0.87024255    1.5149999  0.035256992      1024000       0.0625 
   25100    1.0100953   0.64574078  -0.86937511    1.5151159  0.036875111      1024000       0.0625 
   25200     1.012402   0.65125085    -0.867325    1.5185759  0.036748085      1024000       0.0625 
   25300    1.0122736   0.65289601  -0.86548722    1.5183832  0.036238609      1024000       0.0625 
   25400    1.0118429   0.65930756  -0.85842966    1.5177372   0.03662057      1024000       0.0625 
   25500    1.0130815   0.65782896  -0.86176613    1.5195951  0.036821961      1024000       0.0625 
   25600    1.0158149      0.65613  -0.86756516    1.5236952  0.036355393      1024000       0.0625 
   25700    1.0163832   0.65569931  -0.86884824    1.5245476  0.037188345      1024000       0.0625 
   25800    1.0119613    0.6559544   -0.8619605    1.5179149  0.035870716      1024000       0.0625 
   25900    1.0101985   0.64747861  -0.86779209    1.5152707  0.037157431      1024000       0.0625 
   26000     1.005823   0.64641637  -0.86229119    1.5087076  0.036682793      1024000       0.0625 
   26100    1.0074113   0.64995087  -0.86113903    1.5110899  0.035916227      1024000       0.0625 
   26200    1.0148575   0.65720932  -0.86504973    1.5222591  0.035636361      1024000       0.0625 
   26300    1.0187768   0.66620174  -0.86193623     1.528138  0.037079459      1024000       0.0625 
   26400    1.0168508   0.66738357  -0.85786537    1.5252489  0.036878891      1024000       0.0625 
   26500    1.0127993   0.65717396  -0.86199793    1.5191719  0.035729036      1024000       0.0625 
   26600     1.011924   0.65311395  -0.86474499    1.5178589  0.035285692      1024000       0.0625 
   26700     1.008854   0.64996947  -0.86328451     1.513254  0.035508204      1024000       0.0625 
   26800    1.0101815   0.65214347  -0.86310177    1.5152452  0.035868274      1024000       0.0625 
   26900     1.010962   0.65553203  -0.86088383    1.5164159  0.036160831      1024000       0.0625 
   27000    1.0129989    0.6634588  -0.85601239    1.5194712  0.036594179      1024000       0.0625 
   27100     1.018791   0.66978609   -0.8583731    1.5281592  0.036703088      1024000       0.0625 
   27200    1.0189192   0.66925544  -0.85909613    1.5283516   0.03650694      1024000       0.0625 
   27300    1.0176786   0.67059421  -0.85589638    1.5264906  0.036639371      1024000       0.0625 
   27400    1.0138888   0.66414281  -0.85666327    1.5208061  0.036722017      1024000       0.0625 
   27500    1.0097615   0.65848046  -0.85613478    1.5146152   0.03659801      1024000       0.0625 
   27600    1.0111442   0.65658354  -0.86010563    1.5166892  0.035882346      1024000       0.0625 
   27700    1.0127071   0.66070515  -0.85832832    1.5190335  0.037833651      1024000       0.0625 
   27800    1.0112455    0.6575024  -0.85933876    1.5168412    0.0361053      1024000       0.0625 
   27900    1.0102223   0.65652019  -0.85878616    1.5153063  0.036990195      1024000       0.0625 
   28000    1.0134027   0.65806072  -0.86201617    1.5200769  0.036317175      1024000       0.0625 
   28100    1.0117678   0.66192505  -0.85569958    1.5176246  0.036577655      1024000       0.0625 
   28200    1.0121867   0.66502325  -0.85322972     1.518253   0.03705564      1024000       0.0625 
   28300    1.0133244   0.66935754  -0.85060194    1.5199595  0.036749787      1024000       0.0625 
   28400    1.0163138   0.67333302  -0.85111048    1.5244435  0.036530696      1024000       0.0625 
   28500    1.0171221   0.67560653  -0.85004931    1.5256558  0.037254285      1024000       0.0625 
   28600    1.0175823   0.67894705  -0.84739918    1.5263462  0.037342737      1024000       0.0625 
   28700    1.0128704   0.66687475  -0.85240375    1.5192785  0.036186923      1024000       0.0625 
   28800    1.0107355   0.66583243  -0.85024374    1.5160762  0.036734145      1024000       0.0625 
   28900    1.0101138   0.66727192  -0.84787174    1.5151437  0.036697322      1024000       0.0625 
   29000    1.0131151   0.66436987  -0.85527559    1.5196455  0.036794573      1024000       0.0625 
   29100     1.015268   0.66709477  -0.85578002    1.5228748  0.036130268      1024000       0.0625 
   29200    1.0104356   0.66841095  -0.84721545    1.5156264  0.035993494      1024000       0.0625 
   29300    1.0125626   0.67570267  -0.84311406    1.5188167  0.036557892      1024000       0.0625 
   29400    1.0179327   0.68176322  -0.84510863    1.5268718  0.036677813      1024000       0.0625 
   29500    1.0223365   0.68763881  -0.84583855    1.5334774    0.0370743      1024000       0.0625 
   29600     1.017133   0.69282646  -0.83284587    1.5256723  0.037848542      1024000       0.0625 
   29700     1.015482   0.67711555   -0.8460803    1.5231959   0.03638775      1024000       0.0625 
   29800    1.0118971   0.67252506  -0.84529346    1.5178185  0.037662207      1024000       0.0625 
   29900    1.0071312   0.66763444  -0.84303543    1.5106699  0.035998584      1024000       0.0625 
   30000    1.0063379   0.66932369  -0.84015628      1.50948  0.036698507      1024000       0.0625 
   30100      1.00871   0.67556999  -0.83746806    1.5130381  0.036722988      1024000       0.0625 
   30200    1.0157623   0.68219525    -0.841421    1.5236162  0.036725894      1024000       0.0625 
   30300    1.0202595   0.69560326  -0.83475865    1.5303619  0.037543839      1024000       0.0625 
   30400    1.0239064   0.69742168  -0.83841046    1.5358321  0.037289173      1024000       0.0625 
   30500    1.0217477   0.69434685  -0.83824738    1.5325942   0.03676536      1024000       0.0625 
   30600    1.0166022   0.68861875  -0.83625736    1.5248761  0.036828996      1024000       0.0625 
   30700    1.0117469   0.68439577  -0.83319752    1.5175933  0.037189513      1024000       0.0625 
   30800    1.0109111   0.68172951  -0.83461013    1.5163396  0.036730452      1024000       0.0625 
   30900    1.0122259   0.67677594  -0.84153578    1.5183117  0.036729611      1024000       0.0625 
   31000    1.0118196   0.68070288  -0.83699939    1.5177023  0.036685109      1024000       0.0625 
   31100    1.0163223    0.6822822  -0.84217406    1.5244563    0.0366771      1024000       0.0625 
   31200    1.0171575   0.68330206  -0.84240695     1.525709    0.0362763      1024000       0.0625 
   31300    1.0200648   0.69184286  -0.83822702    1.5300699  0.036966101      1024000       0.0625 
   31400    1.0175627   0.69050426  -0.83581259    1.5263168  0.037054143      1024000       0.0625 
   31500      1.01702   0.68515908  -0.84034362    1.5255027   0.03740136      1024000       0.0625 
   31600     1.016304   0.69035813   -0.8340706    1.5244287  0.037856812      1024000       0.0625 
   31700    1.0142068   0.68803747   -0.8332456    1.5212831  0.036447575      1024000       0.0625 
   31800    1.0114705   0.68099401  -0.83618463    1.5171786  0.035569735      1024000       0.0625 
   31900    1.0114855   0.68325055  -0.83395056    1.5172011  0.036767061      1024000       0.0625 
   32000    1.0101252   0.68471721  -0.83044352    1.5151607  0.037105795      1024000       0.0625 
   32100    1.0143169   0.68963203  -0.83181621    1.5214482  0.037043995      1024000       0.0625 
   32200    1.0157428   0.70083838  -0.82274867     1.523587  0.037414497      1024000       0.0625 
   32300    1.0223419   0.70873518  -0.82475024    1.5334854  0.037519175      1024000       0.0625 
   32400     1.025129   0.70927119  -0.82839478     1.537666  0.037563174      1024000       0.0625 
   32500    1.0211476   0.70651038  -0.82518361     1.531694  0.037943311      1024000       0.0625 
   32600    1.0166445   0.69540932  -0.82953018    1.5249395  0.037260783      1024000       0.0625 
   32700    1.0118796   0.69538056  -0.82241179    1.5177923  0.037670448      1024000       0.0625 
   32800    1.0088157   0.68536157  -0.82783494    1.5131965  0.035392118      1024000       0.0625 
   32900    1.0078401   0.68643257  -0.82530065    1.5117332  0.038334452      1024000       0.0625 
   33000    1.0142746   0.69364031  -0.82774444    1.5213848  0.036939595      1024000       0.0625 
   33100    1.0217417   0.70603392  -0.82655132    1.5325852   0.03747782      1024000       0.0625 
   33200    1.0229322   0.70933227   -0.8250386    1.5343709  0.037816419      1024000       0.0625 
   33300    1.0232697   0.70914608  -0.82573102    1.5348771  0.037340355      1024000       0.0625 
   33400    1.0183469   0.70449323  -0.82299991    1.5274931   0.03653177      1024000       0.0625 
   33500    1.0140323    0.7002755  -0.82074579    1.5210213  0.037358651      1024000       0.0625 
   33600    1.0135644   0.69896884  -0.82135062    1.5203195  0.036948425      1024000       0.0625 
   33700    1.0133626   0.70120623  -0.81881052    1.5200167  0.037410117      1024000       0.0625 
   33800     1.011575   0.69697894  -0.82035653    1.5173355  0.037280316      1024000       0.0625 
   33900    1.0158515   0.70075409  -0.82299593      1.52375   0.03724971      1024000       0.0625 
   34000    1.0189112   0.70409777  -0.82424175    1.5283395  0.037766133      1024000       0.0625 
   34100    1.0222561   0.70635993  -0.82699691    1.5333568  0.037375981      1024000       0.0625 
   34200    1.0186786   0.70951747  -0.81847321    1.5279907  0.037474088      1024000       0.0625 
   34300    1.0178463   0.70537655  -0.82136565    1.5267422  0.037750722      1024000       0.0625 
   34400    1.0145787   0.70379593   -0.8180449    1.5218408  0.037768642      1024000       0.0625 
   34500    1.0133247   0.70083723  -0.81912263    1.5199599  0.036788884      1024000       0.0625 
   34600    1.0155426   0.69871429  -0.82457245    1.5232867  0.036900356      1024000       0.0625 
   34700    1.0158905   0.70190064  -0.82190797    1.5238086  0.037429992      1024000       0.0625 
   34800    1.0140982   0.70042835  -0.82069185    1.5211202  0.037825416      1024000       0.0625 
   34900    1.0162543   0.70346697  -0.82088733    1.5243543   0.03687962      1024000       0.0625 
   35000    1.0169597    0.7070766  -0.81833577    1.5254124  0.037212959      1024000       0.0625 
   35100    1.0181369   0.71250479  -0.81467323     1.527178  0.038911637      1024000       0.0625 
   35200    1.0172322   0.71530435  -0.81051669     1.525821  0.038181241      1024000       0.0625 
   35300     1.020273   0.71742143   -0.8129607    1.5303821  0.037166651      1024000       0.0625 
   35400    1.0224488   0.71613407  -0.81751169    1.5336458  0.038379785      1024000       0.0625 
   35500    1.0192737   0.70972838  -0.81915481    1.5288832  0.037464494      1024000       0.0625 
   35600    1.0186652    0.7036339  -0.82433657    1.5279705  0.037167338      1024000       0.0625 
   35700    1.0166816   0.69888176  -0.82611337    1.5249951  0.037569629      1024000       0.0625 
   35800    1.0117784   0.69144774  -0.82619278    1.5176405  0.037868767      1024000       0.0625 
   35900    1.0074114   0.69313621  -0.81795389    1.5110901  0.037377271      1024000       0.0625 
   36000    1.0093151   0.69872082  -0.81522478    1.5139456  0.037358626      1024000       0.0625 
   36100    1.0159682   0.70787522  -0.81604992    1.5239251   0.03772796      1024000       0.0625 
   36200    1.0222788   0.72507022  -0.80832058    1.5333908  0.038289092      1024000       0.0625 
   36300    1.0253197   0.72434138  -0.81361074    1.5379521  0.037471953      1024000       0.0625 
   36400     1.025415   0.72521369  -0.81288133     1.538095  0.037678726      1024000       0.0625 
   36500    1.0200799   0.72018772  -0.80990483    1.5300926  0.037762972      1024000       0.0625 
   36600    1.0194527   0.71511459  -0.81403723    1.5291518  0.037390295      1024000       0.0625 
   36700    1.0169118   0.70850392  -0.81683659    1.5253405  0.037592273      1024000       0.0625 
   36800     1.013507   0.70674776  -0.81348566    1.5202334  0.037311049      1024000       0.0625 
   36900    1.0074508   0.70351298  -0.80763622    1.5111492  0.036978636      1024000       0.0625 
   37000    1.0094505   0.70703506  -0.80711373    1.5141488  0.037598997      1024000       0.0625 
   37100    1.0160785   0.71306823  -0.81102228    1.5240905   0.03665333      1024000       0.0625 
   37200    1.0227603   0.72887508  -0.80523791     1.534113   0.03780362      1024000       0.0625 
   37300    1.0282519   0.73426528  -0.80808504    1.5423503  0.038505063      1024000       0.0625 
   37400    1.0304671   0.73831717  -0.80735591    1.5456731  0.038447383      1024000       0.0625 
   37500    1.0260197   0.72922264  -0.80977941     1.539002  0.039117467      1024000       0.0625 
   37600    1.0168747   0.71660496  -0.80867987    1.5252848  0.036663179      1024000       0.0625 
   37700    1.0123782    0.7057719  -0.81276834    1.5185402  0.036453637      1024000       0.0625 
   37800    1.0082461   0.70027108  -0.81207106    1.5123421  0.037374805      1024000       0.0625 
   37900    1.0107658   0.70437674  -0.81174483    1.5161216  0.037514105      1024000       0.0625 
   38000    1.0158223   0.71174635  -0.81195989    1.5237062  0.037958618      1024000       0.0625 
   38100    1.0232404   0.71969701  -0.81513614    1.5348332  0.037916039      1024000       0.0625 
   38200    1.0250097    0.7300304  -0.80745669    1.5374871  0.038762752      1024000       0.0625 
   38300     1.022219   0.72564928  -0.80765188    1.5333012  0.038118413      1024000       0.0625 
   38400    1.0188747   0.72228377  -0.80600104    1.5282848  0.037771468      1024000       0.0625 
   38500    1.0166973   0.72896254   -0.7960562    1.5250187   0.03869818      1024000       0.0625 
   38600    1.0172307   0.71681663  -0.80900216    1.5258188    0.0368658      1024000       0.0625 
   38700    1.0163896   0.71724649  -0.80731071    1.5245572  0.037581388      1024000       0.0625 
   38800    1.0207533   0.72264944   -0.8084532    1.5311026  0.037215878      1024000       0.0625 
   38900    1.0188583   0.72423969  -0.80402052    1.5282602  0.037401263      1024000       0.0625 
   39000    1.0218495   0.73286596  -0.79988094    1.5327469  0.038332875      1024000       0.0625 
   39100    1.0217664    0.7317956  -0.80082659    1.5326222  0.037891015      1024000       0.0625 
   39200    1.0236099    0.7302999  -0.80508748    1.5353874  0.038486516      1024000       0.0625 
   39300    1.0184243    0.7207548   -0.8068543    1.5276091  0.037192911      1024000       0.0625 
   39400    1.0152484   0.71726339  -0.80558202    1.5228454  0.037600088      1024000       0.0625 
   39500    1.0123587   0.71296946  -0.80554149     1.518511  0.037705724      1024000       0.0625 
   39600    1.0167829   0.71284244  -0.81230468    1.5251471  0.037038843      1024000       0.0625 
   39700    1.0169642   0.71785889   -0.8075601     1.525419  0.038035918      1024000       0.0625 
   39800    1.0206763   0.72035141  -0.81063575    1.5309872  0.037546747      1024000       0.0625 
   39900    1.0220925   0.73464953  -0.79846189    1.5331114  0.038667713      1024000       0.0625 
   40000    1.0248868   0.73105542  -0.80624737    1.5373028  0.037459899      1024000       0.0625 
   40100    1.0245993   0.74046618   -0.7964054    1.5368716  0.037851564      1024000       0.0625 
   40200    1.0241161   0.73409299  -0.80205371    1.5361467  0.037761967      1024000       0.0625 
   40300    1.0206006   0.72684202  -0.80403158    1.5308736  0.037136743      1024000       0.0625 
   40400    1.0183263   0.71992144   -0.8075407    1.5274621  0.037412731      1024000       0.0625 
   40500    1.0139962   0.71362338   -0.8073438    1.5209672  0.037247075      1024000       0.0625 
   40600    1.0130137   0.71791976  -0.80157359    1.5194934  0.037204916      1024000       0.0625 
   40700    1.0160831   0.71759135  -0.80650615    1.5240975  0.037554499      1024000       0.0625 
   40800    1.0217078   0.72534942  -0.80718489    1.5325343  0.038059579      1024000       0.0625 
   40900    1.0242886   0.73177272  -0.80463279    1.5364055  0.037661764      1024000       0.0625 
   41000    1.0243996    0.7314991  -0.80507291     1.536572   0.03792659      1024000       0.0625 
   41100    1.0237448   0.73348281  -0.80210692    1.5355897  0.038346449      1024000       0.0625 
   41200    1.0169001   0.72545844  -0.79986441    1.5253229  0.038428223      1024000       0.0625 
   41300     1.014948    0.7202052  -0.80218965    1.5223948  0.037286665      1024000       0.0625 
   41400    1.0169056   0.72812439  -0.79720671    1.5253311  0.038019806      1024000       0.0625 
   41500    1.0193353    0.7281917  -0.80078396    1.5289757    0.0371416      1024000       0.0625 
   41600    1.0226171   0.73705452   -0.7968438    1.5338983  0.038045034      1024000       0.0625 
   41700    1.0242444   0.73651928  -0.79981991    1.5363392  0.038053812      1024000       0.0625 
   41800    1.0221775   0.73785536  -0.79538349    1.5332388   0.03808692      1024000       0.0625 
   41900    1.0203857   0.73477647  -0.79577468    1.5305511  0.038157293      1024000       0.0625 
   42000    1.0183487   0.73041146  -0.79708438    1.5274958   0.03664289      1024000       0.0625 
   42100     1.018944   0.72662389  -0.80176477    1.5283887  0.038012173      1024000       0.0625 
   42200    1.0175033   0.72578981  -0.80043796    1.5262278   0.03690296      1024000       0.0625 
   42300    1.0150059   0.72917083  -0.79331081    1.5224816  0.037390905      1024000       0.0625 
   42400    1.0188809   0.73523069  -0.79306332     1.528294  0.037786662      1024000       0.0625 
   42500    1.0250289   0.75265844  -0.78485746    1.5375159  0.038498412      1024000       0.0625 
   42600    1.0276535    0.7496298  -0.79182286    1.5414527  0.039064313      1024000       0.0625 
   42700    1.0266045   0.74614253  -0.79373667    1.5398792  0.037216998      1024000       0.0625 
   42800    1.0219916   0.74221463  -0.79074538      1.53296    0.0386219      1024000       0.0625 
   42900    1.0156864   0.73456314  -0.78893929    1.5235024  0.037262737      1024000       0.0625 
   43000    1.0147196   0.73934151  -0.78271069    1.5220522  0.038351174      1024000       0.0625 
   43100    1.0176908   0.74246111  -0.78404791     1.526509   0.03847367      1024000       0.0625 
   43200    1.0231699   0.75067019  -0.78405722    1.5347274  0.038610643      1024000       0.0625 
   43300    1.0257848    0.7456365  -0.79301316    1.5386497  0.038621992      1024000       0.0625 
   43400    1.0223064   0.75610573  -0.77732647    1.5334322  0.038464838      1024000       0.0625 
   43500    1.0190745   0.74754107  -0.78104342    1.5285845  0.037815514      1024000       0.0625 
   43600     1.021938   0.74273908  -0.79014052    1.5328796  0.037872663      1024000       0.0625 
   43700    1.0210647   0.74195415  -0.78961552    1.5315697  0.038056885      1024000       0.0625 
   43800    1.0205434   0.74337659  -0.78741115    1.5307877  0.037981797      1024000       0.0625 
   43900    1.0221811   0.74284776  -0.79039651    1.5332443  0.037184312      1024000       0.0625 
   44000    1.0251396   0.75218474  -0.78549728     1.537682  0.038865051      1024000       0.0625 
   44100    1.0219405   0.73979061   -0.7930927    1.5328833  0.037552483      1024000       0.0625 
   44200     1.017872   0.73918659  -0.78759408    1.5267807  0.037628667      1024000       0.0625 
   44300    1.0150158   0.74158342  -0.78091304    1.5224965  0.038086836      1024000       0.0625 
   44400    1.0192349   0.74649404  -0.78233107    1.5288251  0.038115061      1024000       0.0625 
   44500     1.022832    0.7491906     -0.78503    1.5342206  0.038342853      1024000       0.0625 
   44600    1.0255625   0.75551557   -0.7828007    1.5383163  0.038895882      1024000       0.0625 
   44700    1.0282941   0.75947758   -0.7829361    1.5424137   0.03841901      1024000       0.0625 
   44800    1.0266272   0.75667679  -0.78323649    1.5399133  0.038318122      1024000       0.0625 
   44900    1.0217592   0.75082088  -0.78179051    1.5326114  0.037621438      1024000       0.0625 
   45000    1.0167738   0.74550994  -0.77962349    1.5251334  0.037992333      1024000       0.0625 
   45100    1.0166072   0.74411292   -0.7807706    1.5248835  0.037595909      1024000       0.0625 
   45200    1.0173123   0.74478716  -0.78115405    1.5259412  0.037720809      1024000       0.0625 
   45300    1.0208731   0.74931753  -0.78196482    1.5312823  0.038292365      1024000       0.0625 
   45400    1.0248641   0.75996259  -0.77730604    1.5372686  0.038389833      1024000       0.0625 
   45500    1.0249837   0.76505503  -0.77239301     1.537448   0.03828166      1024000       0.0625 
   45600    1.0265749   0.76533353  -0.77450136    1.5398349  0.038738914      1024000       0.0625 
   45700    1.0244042   0.76306795  -0.77351093    1.5365789  0.037957999      1024000       0.0625 
   45800    1.0248916   0.75995069  -0.77735933      1.53731  0.037080582      1024000       0.0625 
   45900    1.0224378   0.76021619  -0.77341306    1.5336292  0.038173889      1024000       0.0625 
   46000    1.0210049   0.75763958  -0.77384041      1.53148  0.038001028      1024000       0.0625 
   46100    1.0210013   0.75968125  -0.77179335    1.5314746  0.038132265      1024000       0.0625 
   46200    1.0209129   0.75509354  -0.77624842     1.531342  0.038080133      1024000       0.0625 
   46300    1.0200198   0.75529141    -0.774711    1.5300024  0.038877496      1024000       0.0625 
   46400    1.0229726   0.75510843  -0.77932311    1.5344315  0.038269233      1024000       0.0625 
   46500    1.0245189     0.761193  -0.77555787    1.5367509  0.038269362      1024000       0.0625 
   46600    1.0247098   0.76629011  -0.77074713    1.5370372  0.039392113      1024000       0.0625 
   46700    1.0248493   0.76013921   -0.7771073    1.5372465  0.036870415      1024000       0.0625 
   46800    1.0243319   0.75783193  -0.77863854    1.5364705  0.037829803      1024000       0.0625 
   46900    1.0227447   0.75630678   -0.7777829    1.5340897  0.037401079      1024000       0.0625 
   47000    1.0205037   0.75847753  -0.77225064    1.5307282  0.037662486      1024000       0.0625 
   47100    1.0234946   0.76573134  -0.76948314    1.5352145  0.037470459      1024000       0.0625 
   47200    1.0234892   0.76653386  -0.76867259    1.5352064  0.039590542      1024000       0.0625 
   47300    1.0246986   0.76142212  -0.77559831    1.5370204  0.038515705      1024000       0.0625 
   47400    1.0246345   0.75960388  -0.77732047    1.5369244  0.037930628      1024000       0.0625 
   47500    1.0205621   0.75735985  -0.77345597    1.5308158  0.037389762      1024000       0.0625 
   47600    1.0217889   0.75799737  -0.77465855    1.5326559  0.037959692      1024000       0.0625 
   47700    1.0249489   0.76072862  -0.77666732    1.5373959  0.038327217      1024000       0.0625 
   47800    1.0238891   0.76257903  -0.77322722    1.5358063  0.038532174      1024000       0.0625 
   47900    1.0242733   0.76219992  -0.77418262    1.5363825  0.037707237      1024000       0.0625 
   48000    1.0243603   0.76085846  -0.77565459    1.5365131  0.038966574      1024000       0.0625 
   48100    1.0251389   0.75989746  -0.77778345    1.5376809  0.038101021      1024000       0.0625 
   48200    1.0226504   0.75732213  -0.77662608    1.5339482  0.037854623      1024000       0.0625 
   48300    1.0204564   0.75549416  -0.77516315    1.5306573    0.0373586      1024000       0.0625 
   48400    1.0175188   0.75507294  -0.77117802     1.526251  0.038550267      1024000       0.0625 
   48500    1.0230155   0.76008416  -0.77441168    1.5344958  0.038122645      1024000       0.0625 
   48600    1.0250871   0.76632582  -0.77127732    1.5376031  0.038251465      1024000       0.0625 
   48700    1.0275697   0.77054123  -0.77078578     1.541327  0.038721021      1024000       0.0625 
   48800    1.0268751    0.7725217  -0.76776349    1.5402852  0.038675982      1024000       0.0625 
   48900    1.0296875   0.77160351  -0.77290013    1.5445036  0.038491168      1024000       0.0625 
   49000    1.0253135    0.7675848  -0.77035802    1.5379428  0.037640308      1024000       0.0625 
   49100    1.0190171   0.76149657  -0.76700182    1.5284984  0.037833317      1024000       0.0625 
   49200    1.0184221   0.76089588  -0.76670997    1.5276059  0.037455869      1024000       0.0625 
   49300    1.0208369   0.76654937  -0.76467857    1.5312279  0.038759749      1024000       0.0625 
   49400    1.0257322   0.77400558  -0.76456524    1.5385708   0.03820496      1024000       0.0625 
   49500    1.0303509   0.78548521  -0.76001351    1.5454987  0.038892806      1024000       0.0625 
   49600    1.0318935   0.78129556  -0.76651711    1.5478127  0.038633211      1024000       0.0625 
   49700    1.0299574   0.78771724  -0.75719127    1.5449085  0.039542362      1024000       0.0625 
   49800    1.0259573   0.77258762  -0.76632089    1.5389085  0.038403039      1024000       0.0625 
   49900    1.0212299   0.76718811  -0.76462939    1.5318175  0.037700061      1024000       0.0625 
   50000     1.017469   0.76530328  -0.76087293    1.5261762  0.038918234      1024000       0.0625 
   50100    1.0210733   0.77139379  -0.76018879    1.5315826  0.039014301      1024000       0.0625 
   50200    1.0235169   0.77819706  -0.75705096     1.535248   0.03817124      1024000       0.0625 
   50300      1.02441   0.77604828  -0.76053929    1.5365876  0.038746346      1024000       0.0625 
   50400    1.0281261   0.78598904   -0.7561726    1.5421616  0.038618359      1024000       0.0625 
   50500    1.0274847   0.78883095  -0.75236864    1.5411996  0.039401167      1024000       0.0625 
   50600    1.0284547   0.78697742  -0.75567716    1.5426546  0.039457999      1024000       0.0625 
   50700    1.0281158   0.78298192  -0.75916418    1.5421461  0.038866906      1024000       0.0625 
   50800    1.0229962   0.77853966  -0.75592727    1.5344669  0.038559895      1024000       0.0625 
   50900    1.0233338   0.77638871  -0.75858457    1.5349733  0.039076558      1024000       0.0625 
   51000     1.021286   0.77445194  -0.75744971    1.5319016    0.0391472      1024000       0.0625 
   51100    1.0193415   0.78186401  -0.74712091    1.5289849  0.039339918      1024000       0.0625 
   51200    1.0215788   0.78412404  -0.74821688    1.5323409  0.037856384      1024000       0.0625 
   51300    1.0248787   0.78699017  -0.75030048    1.5372907  0.038597416      1024000       0.0625 
   51400    1.0300486   0.78995019  -0.75509507    1.5450453  0.038737143      1024000       0.0625 
   51500    1.0317137   0.79470284   -0.7528401    1.5475429  0.039000001      1024000       0.0625 
   51600     1.030656   0.80815774  -0.73779858    1.5459563  0.040453636      1024000       0.0625 
   51700    1.0280359   0.79242454  -0.74960183    1.5420264  0.038636216      1024000       0.0625 
   51800     1.023165   0.79044095   -0.7442791      1.53472  0.038707772      1024000       0.0625 
   51900    1.0221626   0.78322567  -0.74999079    1.5332165  0.038248184      1024000       0.0625 
   52000    1.0230418    0.7817833  -0.75275198    1.5345353   0.03903788      1024000       0.0625 
   52100     1.026101   0.78909708    -0.750027    1.5391241  0.039639564      1024000       0.0625 
   52200    1.0279148   0.80654724  -0.73529745    1.5418447  0.039497737      1024000       0.0625 
   52300    1.0276947   0.78951855  -0.75199595    1.5415145  0.039416323      1024000       0.0625 
   52400    1.0256223   0.78587455   -0.7525314    1.5384059  0.038779483      1024000       0.0625 
   52500    1.0252418    0.7845414  -0.75329389    1.5378353  0.038097742      1024000       0.0625 
   52600     1.023865   0.78111888   -0.7546512    1.5357701  0.038284834      1024000       0.0625 
   52700    1.0243616   0.78229933  -0.75421568     1.536515  0.038348866      1024000       0.0625 
   52800    1.0251003   0.79169699  -0.74592594    1.5376229  0.038564701      1024000       0.0625 
   52900    1.0271279   0.78873119  -0.75193321    1.5406644  0.038886232      1024000       0.0625 
   53000    1.0292762   0.79540708  -0.74847971    1.5438868  0.038914204      1024000       0.0625 
   53100    1.0319079   0.79298488   -0.7548494    1.5478343  0.038887632      1024000       0.0625 
   53200    1.0292209   0.79014073    -0.753663    1.5438037   0.03785117      1024000       0.0625 
   53300    1.0257396    0.7892112  -0.74937076     1.538582  0.038918315      1024000       0.0625 
   53400    1.0238385    0.7848949  -0.75083541    1.5357303   0.03763363      1024000       0.0625 
   53500    1.0259309   0.78304353  -0.75582538    1.5388689  0.039250685      1024000       0.0625 
   53600     1.024028   0.78792471  -0.74808979    1.5360145  0.039585986      1024000       0.0625 
   53700    1.0264021   0.78724847  -0.75232723    1.5395757  0.037662334      1024000       0.0625 
   53800    1.0235501   0.78595171  -0.74934606    1.5352978  0.038565005      1024000       0.0625 
   53900    1.0261888   0.79659715  -0.74265863    1.5392558  0.039755115      1024000       0.0625 
   54000    1.0298884   0.79345205  -0.75135297     1.544805  0.038427432      1024000       0.0625 
   54100    1.0292172   0.79735357  -0.74644469    1.5437983   0.03889428      1024000       0.0625 
   54200    1.0316528   0.80259498   -0.7448566    1.5474516  0.039519186      1024000       0.0625 
   54300    1.0291862   0.79517785  -0.74857384    1.5437517  0.039272068      1024000       0.0625 
   54400    1.0277378   0.78997176  -0.75160747    1.5415792  0.037683084      1024000       0.0625 
   54500    1.0256681   0.78872836  -0.74974638    1.5384747  0.038218487      1024000       0.0625 
   54600    1.0244799   0.78687067   -0.7498218    1.5366925  0.039262692      1024000       0.0625 
   54700    1.0245285   0.78935832  -0.74740699    1.5367653  0.039443325      1024000       0.0625 
   54800    1.0242368   0.78616169  -0.75016604    1.5363277  0.039039138      1024000       0.0625 
   54900     1.025582   0.79108892  -0.74725665    1.5383456  0.039149917      1024000       0.0625 
   55000    1.0281309   0.79451582  -0.74765296    1.5421688  0.039138373      1024000       0.0625 
   55100    1.0289887   0.80295089  -0.74050455    1.5434554  0.040377183      1024000       0.0625 
   55200     1.026775   0.79674604  -0.74338896     1.540135  0.039242866      1024000       0.0625 
   55300    1.0284355   0.79599168   -0.7466341    1.5426258  0.038216021      1024000       0.0625 
   55400    1.0296125   0.80471575  -0.73967549    1.5443912  0.038933072      1024000       0.0625 
   55500    1.0302083   0.79767777  -0.74760709    1.5452849  0.039650561      1024000       0.0625 
   55600    1.0275447   0.79517361  -0.74611594    1.5412896  0.038315875      1024000       0.0625 
   55700    1.0250901   0.79704435  -0.74056336    1.5376077  0.039037479      1024000       0.0625 
   55800    1.0244801   0.79315105   -0.7435417    1.5366927  0.038877539      1024000       0.0625 
   55900    1.0266026   0.79427073  -0.74560574    1.5398765  0.038277643      1024000       0.0625 
   56000    1.0259147   0.79429893  -0.74454565    1.5388446  0.038246368      1024000       0.0625 
   56100     1.031007   0.80962329  -0.73685959    1.5464829  0.040298308      1024000       0.0625 
   56200    1.0304247   0.80288296  -0.74272644    1.5456094  0.039222336      1024000       0.0625 
   56300    1.0311855   0.80058667  -0.74616403    1.5467507  0.038962873      1024000       0.0625 
   56400    1.0279303    0.8046846  -0.73718326    1.5418679  0.040329808      1024000       0.0625 
   56500    1.0272527   0.79944872  -0.74140276    1.5408515  0.039566117      1024000       0.0625 
   56600    1.0247767   0.79870933  -0.73842825    1.5371376  0.039920903      1024000       0.0625 
   56700    1.0268526   0.79481788  -0.74543355    1.5402514  0.038891212      1024000       0.0625 
   56800    1.0259058   0.79501994  -0.74381122    1.5388312  0.039299143      1024000       0.0625 
   56900    1.0287078   0.80262169  -0.74041248    1.5430342  0.039425293      1024000       0.0625 
   57000    1.0307032   0.80225344  -0.74377379    1.5460272   0.03911206      1024000       0.0625 
   57100     1.029143   0.80181617  -0.74187081     1.543687  0.039612466      1024000       0.0625 
   57200    1.0270465   0.79799182  -0.74255035    1.5405422  0.038621753      1024000       0.0625 
   57300    1.0274856   0.79964351   -0.7415574    1.5412009  0.039025748      1024000       0.0625 
   57400     1.030179   0.80678586  -0.73845505    1.5452409  0.039312839      1024000       0.0625 
   57500    1.0310716   0.79934637   -0.7472334    1.5465798  0.038683497      1024000       0.0625 
   57600    1.0297038   0.80099932  -0.74352874    1.5445281  0.039938658      1024000       0.0625 
   57700    1.0291556   0.80365043  -0.74005536    1.5437058   0.03960348      1024000       0.0625 
   57800    1.0304629   0.80118506  -0.74448166    1.5456667  0.039106011      1024000       0.0625 
   57900    1.0289735   0.79723803  -0.74619472    1.5434327  0.038332809      1024000       0.0625 
   58000    1.0310894    0.8009187  -0.74568776    1.5466065  0.038979437      1024000       0.0625 
   58100    1.0288611   0.80237939  -0.74088468    1.5432641  0.039315303      1024000       0.0625 
   58200     1.030505   0.79787102  -0.74785881    1.5457298  0.040067884      1024000       0.0625 
   58300    1.0293512   0.79885387  -0.74514531    1.5439992  0.039061226      1024000       0.0625 
   58400    1.0284977   0.79894066  -0.74377838     1.542719  0.038753839      1024000       0.0625 
   58500    1.0280772   0.79762092  -0.74446728    1.5420882   0.03926027      1024000       0.0625 
   58600    1.0284862    0.8009666  -0.74173522    1.5427018  0.039437324      1024000       0.0625 
   58700    1.0307178   0.80300571  -0.74304331     1.546049   0.03826745      1024000       0.0625 
   58800    1.0303996     0.804909  -0.74066286    1.5455719  0.038462261      1024000       0.0625 
   58900    1.0294668    0.8032142   -0.7409585    1.5441727  0.039057404      1024000       0.0625 
   59000    1.0311903   0.80070591  -0.74605193    1.5467578  0.038714087      1024000       0.0625 
   59100    1.0261021   0.79643523  -0.74269042    1.5391256  0.038796935      1024000       0.0625 
   59200    1.0250459   0.79780658  -0.73973484    1.5375414  0.039118805      1024000       0.0625 
   59300     1.026475   0.80351856  -0.73616645     1.539685  0.039045496      1024000       0.0625 
   59400    1.0301973   0.81023562  -0.73503276    1.5452684  0.038319299      1024000       0.0625 
   59500    1.0321053   0.81947998  -0.72865026    1.5481302  0.040467771      1024000       0.0625 
   59600    1.0313514   0.81788926  -0.72911024    1.5469995  0.039946436      1024000       0.0625 
   59700    1.0328549   0.81251788  -0.73673686    1.5492547  0.038932881      1024000       0.0625 
   59800    1.0315671   0.81318393  -0.73413914    1.5473231  0.038580193      1024000       0.0625 
   59900    1.0316064   0.80800472   -0.7393773     1.547382  0.039218817      1024000       0.0625 
   60000    1.0277779   0.80810056  -0.73353874    1.5416393  0.038407896      1024000       0.0625 
   60100    1.0294773   0.80985591  -0.73433241    1.5441883  0.039847062      1024000       0.0625 
   60200    1.0302605   0.80992757  -0.73543562    1.5453632  0.039211681      1024000       0.0625 
   60300    1.0314711   0.81557566  -0.73160343    1.5471791  0.039566989      1024000       0.0625 
   60400    1.0308371   0.81204016  -0.73418788     1.546228   0.03891032      1024000       0.0625 
   60500    1.0313399   0.82113362  -0.72584854    1.5469822  0.040589461      1024000       0.0625 
   60600    1.0306118   0.80867534   -0.7372147      1.54589  0.040225152      1024000       0.0625 
   60700    1.0315707   0.80798007  -0.73934835    1.5473284  0.040157033      1024000       0.0625 
   60800    1.0292546   0.80681576  -0.73703851    1.5438543  0.040106465      1024000       0.0625 
   60900    1.0274271   0.81590738  -0.72520569    1.5411131  0.039577885      1024000       0.0625 
   61000    1.0305428   0.81716343  -0.72862324    1.5457867  0.040612506      1024000       0.0625 
   61100    1.0327594   0.81328565  -0.73582575    1.5491114  0.038808865      1024000       0.0625 
   61200    1.0342417   0.81567267  -0.73566211    1.5513348  0.040494491      1024000       0.0625 
   61300    1.0294841   0.81046792  -0.73373068    1.5441986  0.039090075      1024000       0.0625 
   61400    1.0319122   0.81217237  -0.73566824    1.5478406  0.038412739      1024000       0.0625 
   61500    1.0305352    0.8154888  -0.73028638    1.5457752  0.039219214      1024000       0.0625 
   61600    1.0293305   0.81379838  -0.73016983    1.5439682  0.039296899      1024000       0.0625 
   61700    1.0281213    0.8176636  -0.72449078    1.5421544  0.039864676      1024000       0.0625 
   61800     1.031104    0.8173665   -0.7292619    1.5466284  0.039672384      1024000       0.0625 
   61900     1.031644   0.82024151  -0.72719692    1.5474384  0.039337183      1024000       0.0625 
   62000    1.0371176   0.82344151  -0.73220713    1.5556486  0.039813619      1024000       0.0625 
   62100    1.0337772    0.8231503   -0.7274878    1.5506381  0.040393323      1024000       0.0625 
   62200    1.0305483   0.81439437  -0.73140044    1.5457948  0.039221839      1024000       0.0625 
   62300    1.0290417   0.82452907  -0.71900599    1.5435351  0.040131427      1024000       0.0625 
   62400    1.0304813   0.81363771  -0.73205659    1.5456943  0.039879592      1024000       0.0625 
   62500    1.0337286   0.82573132  -0.72483386    1.5505652  0.040126596      1024000       0.0625 
   62600    1.0318391   0.81742391  -0.73030714    1.5477311  0.039356867      1024000       0.0625 
   62700    1.0290108   0.81608259  -0.72740606    1.5434887   0.03967522      1024000       0.0625 
   62800    1.0306197    0.8177527  -0.72814926     1.545902  0.038925777      1024000       0.0625 
   62900    1.0310211   0.81730846  -0.72919553     1.546504  0.039623869      1024000       0.0625 
   63000    1.0314044   0.82045212   -0.7266268    1.5470789  0.039799674      1024000       0.0625 
   63100    1.0329462    0.8211321   -0.7282596    1.5493917  0.040071569      1024000       0.0625 
   63200    1.0274543   0.81451158  -0.72664239     1.541154  0.039605365      1024000       0.0625 
   63300    1.0257618   0.81442173  -0.72419354    1.5386153  0.040213462      1024000       0.0625 
   63400    1.0273076   0.81916513  -0.72176873    1.5409339  0.039437054      1024000       0.0625 
   63500    1.0322343   0.82551345  -0.72281033    1.5483238  0.040582971      1024000       0.0625 
   63600    1.0372439   0.82968859  -0.72614943     1.555838  0.040114818      1024000       0.0625 
   63700    1.0378044   0.83127185  -0.72540699    1.5566788  0.040529189      1024000       0.0625 
   63800     1.037527   0.82434075  -0.73192203    1.5562628  0.040755737      1024000       0.0625 
   63900    1.0346191   0.82400244  -0.72789844    1.5519009  0.039745977      1024000       0.0625 
   64000    1.0331892   0.82252721  -0.72722896    1.5497562  0.039714609      1024000       0.0625 
   64100    1.0339727   0.82421555  -0.72671589    1.5509314   0.04077047      1024000       0.0625 
   64200    1.0296488   0.82370917  -0.72073642    1.5444456  0.040765102      1024000       0.0625 
   64300    1.0323775   0.81790151  -0.73063711    1.5485386  0.039708101      1024000       0.0625 
   64400    1.0302844   0.81709453  -0.72830451     1.545399  0.039301654      1024000       0.0625 
   64500    1.0311387    0.8243476  -0.72233278    1.5466804  0.039373279      1024000       0.0625 
   64600    1.0316954   0.82003856  -0.72747691    1.5475155  0.039384195      1024000       0.0625 
   64700    1.0329406   0.82336139  -0.72602183    1.5493832  0.040086166      1024000       0.0625 
   64800    1.0357621   0.82376072   -0.7298547    1.5536154  0.040200528      1024000       0.0625 
   64900    1.0349413   0.82037018  -0.73201399    1.5523842  0.039860679      1024000       0.0625 
   65000    1.0326278   0.81861248  -0.73030156     1.548914  0.040468045      1024000       0.0625 
   65100    1.0323734   0.82583165  -0.72270086    1.5485325  0.039150445      1024000       0.0625 
   65200     1.031511   0.81884214   -0.7283968    1.5472389  0.039471906      1024000       0.0625 
   65300    1.0327369   0.82328455  -0.72579317    1.5490777  0.040550196      1024000       0.0625 
   65400    1.0369712    0.8255183  -0.72991067     1.555429  0.040945779      1024000       0.0625 
   65500    1.0331112   0.81813021  -0.73150897    1.5496392  0.038861764      1024000       0.0625 
   65600    1.0300345   0.81900114  -0.72602303    1.5450242  0.039430722      1024000       0.0625 
   65700    1.0288125   0.82239304  -0.72079822    1.5431913  0.038812654      1024000       0.0625 
   65800    1.0324156    0.8239533  -0.72464247    1.5485958  0.040110982      1024000       0.0625 
   65900    1.0377347   0.83218204  -0.72439218    1.5565742  0.040945091      1024000       0.0625 
   66000    1.0388318   0.83886866  -0.71935124    1.5582199  0.041235317      1024000       0.0625 
   66100    1.0331489    0.8288769  -0.72081883    1.5496957  0.039717535      1024000       0.0625 
   66200    1.0322842   0.83050838  -0.71789034    1.5483987  0.040422192      1024000       0.0625 
   66300    1.0324558   0.82682532  -0.72183074    1.5486561   0.03999481      1024000       0.0625 
   66400    1.0335997    0.8282008  -0.72217104    1.5503718  0.039720237      1024000       0.0625 
   66500    1.0354294   0.83001373  -0.72310265    1.5531164  0.040507032      1024000       0.0625 
   66600    1.0372658   0.82946212  -0.72640882    1.5558709  0.040400554      1024000       0.0625 
   66700      1.03539   0.83302791  -0.72002937    1.5530573  0.040329549      1024000       0.0625 
   66800    1.0322334   0.82584626  -0.72247626    1.5483225  0.040303427      1024000       0.0625 
   66900    1.0361204   0.82651495  -0.72763789    1.5541528  0.039496472      1024000       0.0625 
   67000     1.035109   0.82622757  -0.72640822    1.5526358  0.039465709      1024000       0.0625 
   67100    1.0352388   0.83006081   -0.7227696    1.5528304  0.040879847      1024000       0.0625 
   67200    1.0336997   0.82624819  -0.72427365    1.5505218  0.040833017      1024000       0.0625 
   67300    1.0360601   0.82899399  -0.72506837    1.5540624  0.039948557      1024000       0.0625 
   67400    1.0364877   0.82416942  -0.73053434    1.5547038  0.039726467      1024000       0.0625 
   67500    1.0363574   0.82688089  -0.72762739    1.5545083  0.040270106      1024000       0.0625 
   67600    1.0342134    0.8184453  -0.73284717    1.5512925  0.039096433      1024000       0.0625 
   67700    1.0341695   0.82362066  -0.72760584    1.5512265  0.039149163      1024000       0.0625 
   67800     1.033637   0.82142751  -0.72900033    1.5504278  0.040427591      1024000       0.0625 
   67900    1.0356658   0.82043553  -0.73303546     1.553471  0.039708796      1024000       0.0625 
   68000    1.0324898   0.82054775  -0.72815933    1.5487071  0.040099033      1024000       0.0625 
   68100    1.0341364   0.82101201  -0.73016488    1.5511769  0.040146121      1024000       0.0625 
   68200    1.0349776   0.82389737  -0.72854136    1.5524387  0.038632304      1024000       0.0625 
   68300    1.0347605    0.8244021  -0.72771087     1.552113  0.039588998      1024000       0.0625 
   68400    1.0347243   0.82752574  -0.72453297    1.5520587  0.040973404      1024000       0.0625 
   68500    1.0333523   0.82355476  -0.72644607    1.5500008  0.038997432      1024000       0.0625 
   68600     1.035752   0.82443165  -0.72916861    1.5536003  0.039744455      1024000       0.0625 
   68700    1.0359461   0.82372183  -0.73016952    1.5538913  0.039679077      1024000       0.0625 
   68800    1.0369599   0.82386943  -0.73154261     1.555412  0.040152212      1024000       0.0625 
   68900    1.0346794   0.82297303  -0.72901835    1.5519914  0.039668228      1024000       0.0625 
   69000    1.0299513   0.82114381  -0.72375562    1.5448994  0.039496895      1024000       0.0625 
   69100    1.0302293    0.8254153  -0.71990103    1.5453163  0.039872308      1024000       0.0625 
   69200    1.0317228   0.82792059  -0.71963602    1.5475566  0.038750833      1024000       0.0625 
   69300    1.0369302   0.83514059  -0.72022698    1.5553676   0.04041443      1024000       0.0625 
   69400    1.0379086   0.83487576  -0.72195928     1.556835  0.040159074      1024000       0.0625 
   69500    1.0350677   0.83855835  -0.71401553    1.5525739  0.040787696      1024000       0.0625 
   69600    1.0323192   0.83638996  -0.71206121    1.5484512  0.039717878      1024000       0.0625 
   69700    1.0349429   0.83651399  -0.71587258    1.5523866  0.041106757      1024000       0.0625 
   69800     1.038033   0.83694174     -0.72008    1.5570217  0.039876302      1024000       0.0625 
   69900    1.0387115   0.83522604  -0.72281341    1.5580395  0.039871584      1024000       0.0625 
   70000    1.0347903   0.83166073  -0.72049694    1.5521577  0.039853889      1024000       0.0625 
   70100    1.0378493   0.83025191   -0.7264942    1.5567461  0.040244668      1024000       0.0625 
   70200    1.0377463   0.84116358  -0.71542811    1.5565917  0.041077007      1024000       0.0625 
   70300    1.0374922   0.84043833  -0.71577212    1.5562105    0.0402559      1024000       0.0625 
   70400    1.0378022   0.83379894  -0.72287662    1.5566756  0.040133154      1024000       0.0625 
   70500    1.0374178   0.83103997  -0.72505899     1.556099  0.039217221      1024000       0.0625 
   70600    1.0348725   0.83214724  -0.72013381    1.5522811  0.040732907      1024000       0.0625 
   70700    1.0334364   0.83815312  -0.71197385     1.550127  0.041097741      1024000       0.0625 
   70800    1.0350212   0.83266706  -0.71983703    1.5525041  0.040681319      1024000       0.0625 
   70900    1.0349343   0.83283053  -0.71954318    1.5523737  0.040176412      1024000       0.0625 
   71000    1.0365254    0.8423895   -0.7123708    1.5547603   0.04079059      1024000       0.0625 
   71100     1.035379   0.83962347  -0.71341732    1.5530408  0.041003625      1024000       0.0625 
   71200    1.0328676   0.83100389  -0.71826983    1.5492737  0.039832227      1024000       0.0625 
   71300    1.0349882   0.83254232  -0.71991232    1.5524546  0.039710085      1024000       0.0625 
   71400    1.0371479   0.83442463   -0.7212694     1.555694  0.039916491      1024000       0.0625 
   71500    1.0370011   0.84061706  -0.71485678    1.5554738   0.04039141      1024000       0.0625 
   71600    1.0378369   0.83703466  -0.71969288    1.5567275  0.039815108      1024000       0.0625 
   71700    1.0383185   0.83572362  -0.72172634      1.55745   0.04021892      1024000       0.0625 
   71800    1.0384185   0.83624548  -0.72135443    1.5575999  0.040980866      1024000       0.0625 
   71900    1.0381316   0.83201413  -0.72515548    1.5571696  0.039967583      1024000       0.0625 
   72000    1.0396573   0.83911139  -0.72034669    1.5594581  0.040684017      1024000       0.0625 
   72100    1.0367447     0.832296  -0.72279329    1.5550893  0.039800767      1024000       0.0625 
   72200    1.0374158   0.83284998   -0.7232459    1.5560959   0.03939525      1024000       0.0625 
   72300    1.0377645   0.83019127  -0.72642764    1.5566189  0.039759937      1024000       0.0625 
   72400    1.0366563    0.8319623  -0.72299433    1.5549566   0.04009274      1024000       0.0625 
   72500     1.037718   0.83925162  -0.71729762    1.5565492   0.04071676      1024000       0.0625 
   72600    1.0370112   0.83310014  -0.72238881     1.555489  0.040617659      1024000       0.0625 
   72700    1.0355624   0.83800093  -0.71531486    1.5533158  0.041058836      1024000       0.0625 
   72800    1.0359526   0.83435449  -0.71954673    1.5539012  0.039903167      1024000       0.0625 
   72900    1.0332067   0.83954538  -0.71023699    1.5497824  0.040855301      1024000       0.0625 
   73000    1.0394979    0.8329258  -0.72629324     1.559219  0.039936595      1024000       0.0625 
[...]
  981400    1.4933306    1.1892344   -1.0507215    2.2399559  0.064513367      1024000       0.0625 
  981500    1.4910281    1.1843421   -1.0521601    2.2365022  0.063965646      1024000       0.0625 
  981600    1.4889487    1.1801225   -1.0532607    2.2333832  0.063803116      1024000       0.0625 
  981700    1.4866201    1.1797468   -1.0501435    2.2298903  0.064698473      1024000       0.0625 
  981800    1.4891204    1.1870745   -1.0465663    2.2336408  0.065086695      1024000       0.0625 
  981900    1.4928885    1.1896096   -1.0496831    2.2392928  0.063387688      1024000       0.0625 
  982000    1.4944187     1.193932    -1.047656    2.2415881  0.063531782      1024000       0.0625 
  982100    1.4935976    1.1938064   -1.0465501    2.2403564  0.065098609      1024000       0.0625 
  982200    1.4925026    1.1956961   -1.0430178    2.2387139  0.065367708      1024000       0.0625 
  982300    1.4942123    1.1931812   -1.0480973    2.2412785  0.064451504      1024000       0.0625 
  982400    1.4930692     1.188462   -1.0511018    2.2395638  0.063617035      1024000       0.0625 
  982500    1.4905306    1.1878922   -1.0478638     2.235756  0.064273609      1024000       0.0625 
  982600     1.490235    1.1900206   -1.0452919    2.2353125  0.064559813      1024000       0.0625 
  982700    1.4900473    1.1933496   -1.0416814     2.235031  0.065087679      1024000       0.0625 
  982800    1.4937445    1.1956328    -1.044944    2.2405768  0.064387446      1024000       0.0625 
  982900    1.4936062    1.1983096   -1.0420597    2.2403693  0.065040823      1024000       0.0625 
  983000    1.4923893    1.1962179    -1.042326    2.2385439  0.065041602      1024000       0.0625 
  983100    1.4905093    1.1898769   -1.0458471     2.235724  0.063943787      1024000       0.0625 
  983200    1.4900248    1.1994477   -1.0355496    2.2349973  0.064367662      1024000       0.0625 
  983300      1.49413    1.2010401   -1.0401148    2.2411549  0.066089011      1024000       0.0625 
  983400    1.4922935    1.1972923    -1.041108    2.2384003  0.064778109      1024000       0.0625 
  983500    1.4918577    1.1956862   -1.0420604    2.2377466  0.064876933      1024000       0.0625 
  983600    1.4899851    1.1979269   -1.0370109    2.2349378  0.064759666      1024000       0.0625 
  983700     1.491887    1.1984561   -1.0393345    2.2377905  0.064349964      1024000       0.0625 
  983800    1.4914083    1.1938013   -1.0432712    2.2370725  0.064361412      1024000       0.0625 
  983900    1.4902423    1.2039156    -1.031408    2.2353236  0.065723429      1024000       0.0625 
  984000    1.4928095    1.2036592    -1.035515    2.2391742  0.064618393      1024000       0.0625 
  984100    1.4950768    1.2013539   -1.0412212    2.2425751  0.064233071      1024000       0.0625 
  984200    1.4949229    1.2025632   -1.0397812    2.2423444  0.065103352      1024000       0.0625 
  984300    1.4954021    1.2029052   -1.0401579    2.2430631  0.064527782      1024000       0.0625 
  984400    1.4920635    1.2032625   -1.0347928    2.2380553  0.066014118      1024000       0.0625 
  984500    1.4950744    1.2001737   -1.0423978    2.2425716  0.064398184      1024000       0.0625 
  984600    1.4893298    1.1962248     -1.03773    2.2339548    0.0642624      1024000       0.0625 
  984700    1.4911534     1.203681   -1.0330091    2.2366901  0.064049858      1024000       0.0625 
  984800    1.4951117     1.199338   -1.0432894    2.2426274  0.064016132      1024000       0.0625 
  984900    1.4910687    1.1972364   -1.0393267    2.2365631  0.065259276      1024000       0.0625 
  985000    1.4895465    1.1937491   -1.0405307    2.2342799  0.064280938      1024000       0.0625 
  985100    1.4929604    1.1991498   -1.0402508    2.2394006  0.064316054      1024000       0.0625 
  985200    1.4940584    1.2021896    -1.038858    2.2410476  0.064630848      1024000       0.0625 
  985300    1.4955269    1.2051689   -1.0380814    2.2432503  0.064134393      1024000       0.0625 
  985400    1.4949955    1.2043589   -1.0380944    2.2424532  0.065092866      1024000       0.0625 
  985500    1.4941475    1.2019998   -1.0391815    2.2411813  0.064522127      1024000       0.0625 
  985600     1.493791    1.2043053   -1.0363412    2.2406465  0.064967983      1024000       0.0625 
  985700    1.4909639    1.1975524   -1.0388535    2.2364059  0.064832473      1024000       0.0625 
  985800     1.490433    1.2055797   -1.0300299    2.2356096  0.065624823      1024000       0.0625 
  985900     1.496816    1.2110141   -1.0341698    2.2451839  0.065343575      1024000       0.0625 
  986000    1.4962334     1.200279   -1.0440311      2.24431  0.064425287      1024000       0.0625 
  986100    1.4929146     1.199572   -1.0397599    2.2393319  0.064840066      1024000       0.0625 
  986200    1.4928424    1.2003745   -1.0388491    2.2392236  0.065547583      1024000       0.0625 
  986300    1.4935642    1.1990811   -1.0412251    2.2403063    0.0649229      1024000       0.0625 
  986400    1.4931451    1.1972572   -1.0424205    2.2396777  0.064147071      1024000       0.0625 
  986500    1.4918429    1.2003908   -1.0373335    2.2377244   0.06387295      1024000       0.0625 
  986600    1.4942256     1.197424   -1.0438744    2.2412984  0.064568899      1024000       0.0625 
  986700    1.4938576    1.1985675   -1.0421788    2.2407463   0.06438918      1024000       0.0625 
  986800    1.4909333    1.1963133   -1.0400468      2.23636  0.064917292      1024000       0.0625 
  986900     1.491588    1.1991429   -1.0381992    2.2373421  0.064850027      1024000       0.0625 
  987000     1.490373    1.1936684   -1.0418513    2.2355196  0.064225409      1024000       0.0625 
  987100     1.488638    1.1971556   -1.0357615    2.2329171  0.064566779      1024000       0.0625 
  987200    1.4914171    1.2023532   -1.0347325    2.2370857   0.06463947      1024000       0.0625 
  987300    1.5001947    1.2060414   -1.0442105    2.2502519    0.0645613      1024000       0.0625 
  987400    1.5060151    1.2148202   -1.0441621    2.2589823  0.064962122      1024000       0.0625 
  987500    1.5014289    1.2156364   -1.0364668    2.2521032  0.065550258      1024000       0.0625 
  987600    1.4943378    1.2109233   -1.0305433    2.2414666  0.065425814      1024000       0.0625 
  987700    1.4944765    1.2078294   -1.0338453    2.2416747  0.063571208      1024000       0.0625 
  987800    1.4940232    1.2099687    -1.031026    2.2409948  0.064621592      1024000       0.0625 
  987900    1.4954718    1.2090349   -1.0341328    2.2431677  0.064020807      1024000       0.0625 
  988000    1.4950344    1.2072941   -1.0352174    2.2425116   0.06399734      1024000       0.0625 
  988100    1.4929754    1.2116697   -1.0277535    2.2394232  0.064836455      1024000       0.0625 
  988200    1.4919055    1.2108952   -1.0269231    2.2378183  0.064314531      1024000       0.0625 
  988300    1.4920767    1.2025962   -1.0354789    2.2380751  0.065322666      1024000       0.0625 
  988400    1.4935407     1.209051   -1.0312201    2.2402711  0.065652723      1024000       0.0625 
  988500    1.4923307     1.201299    -1.037157     2.238456  0.064271448      1024000       0.0625 
  988600    1.4863956    1.1950728   -1.0344808    2.2295536  0.064457507      1024000       0.0625 
  988700    1.4871005    1.2007747   -1.0298362    2.2306109  0.063605267      1024000       0.0625 
  988800    1.4916121    1.2034072   -1.0339709    2.2373782  0.064819139      1024000       0.0625 
  988900     1.497964    1.2126287   -1.0342772    2.2469059  0.065267701      1024000       0.0625 
  989000    1.5029272    1.2192864   -1.0350642    2.2543506  0.064946516      1024000       0.0625 
  989100    1.5112584    1.2292103   -1.0376368    2.2668471  0.064541838      1024000       0.0625 
  989200    1.5093805    1.2292908   -1.0347395    2.2640303  0.066150298      1024000       0.0625 
  989300    1.5023275    1.2281794   -1.0252715     2.253451  0.065593064      1024000       0.0625 
  989400    1.5015278    1.2163846   -1.0358669    2.2522515  0.065073904      1024000       0.0625 
  989500    1.4986023    1.2147425   -1.0331208    2.2478633  0.065865924      1024000       0.0625 
  989600    1.4952014    1.2046833   -1.0380788    2.2427621  0.063526936      1024000       0.0625 
  989700    1.4926936    1.2056756   -1.0333248    2.2390004  0.064186533      1024000       0.0625 
  989800     1.493343    1.2111929   -1.0287816    2.2399745  0.063134048      1024000       0.0625 
  989900    1.4924327      1.20776   -1.0308491    2.2386091  0.063780431      1024000       0.0625 
  990000    1.4939462    1.2077037   -1.0331756    2.2408793  0.063121742      1024000       0.0625 
  990100    1.4973121    1.2144898   -1.0314382    2.2459281  0.064628194      1024000       0.0625 
  990200    1.5010387    1.2205783   -1.0309396    2.2515179  0.065891509      1024000       0.0625 
  990300    1.4989972    1.2173607    -1.031095    2.2484557  0.065029846      1024000       0.0625 
  990400    1.4959335     1.212454   -1.0314062    2.2438602  0.064962082      1024000       0.0625 
  990500    1.4930817    1.2085086    -1.031074    2.2395826  0.065242983      1024000       0.0625 
  990600    1.4968316    1.2108652   -1.0343422    2.2452074  0.064031693      1024000       0.0625 
  990700    1.4923569    1.2113464    -1.027149    2.2384954  0.064469804      1024000       0.0625 
  990800    1.4926255    1.2151897   -1.0237086    2.2388983  0.064832397      1024000       0.0625 
  990900     1.494805    1.2120475     -1.03012    2.2421675  0.064507191      1024000       0.0625 
  991000    1.4983488    1.2201441   -1.0273389     2.247483  0.064734496      1024000       0.0625 
  991100    1.4998285    1.2190496    -1.030653    2.2497026  0.064491976      1024000       0.0625 
  991200    1.4941981    1.2137156   -1.0275416    2.2412572  0.065226405      1024000       0.0625 
  991300    1.4912266    1.2106223   -1.0261777       2.2368  0.063213408      1024000       0.0625 
  991400    1.4904528    1.2120814    -1.023558    2.2356394  0.064880661      1024000       0.0625 
  991500    1.4957066    1.2156985   -1.0278213    2.2435199  0.064370703      1024000       0.0625 
  991600    1.4980491    1.2191411   -1.0278925    2.2470336  0.063782628      1024000       0.0625 
  991700    1.4989229    1.2190925   -1.0292517    2.2483442  0.065118237      1024000       0.0625 
  991800    1.4947941    1.2167669   -1.0253842    2.2421511  0.064381057      1024000       0.0625 
  991900    1.4895952    1.2125747   -1.0217782    2.2343529  0.064559203      1024000       0.0625 
  992000    1.4935829    1.2127675   -1.0275669    2.2403344  0.064638669      1024000       0.0625 
  992100     1.494311    1.2158979   -1.0255285    2.2414265  0.064221267      1024000       0.0625 
  992200    1.4948568    1.2256184   -1.0166268    2.2422452  0.065835026      1024000       0.0625 
  992300    1.4993469    1.2199188   -1.0290614    2.2489803  0.065050612      1024000       0.0625 
  992400    1.4971569    1.2247512   -1.0209441    2.2456953  0.065316595      1024000       0.0625 
  992500     1.494609    1.2171424   -1.0247311    2.2418735    0.0651055      1024000       0.0625 
  992600    1.4947259    1.2153483   -1.0267006    2.2420488  0.065156656      1024000       0.0625 
  992700    1.4924112    1.2118058    -1.026771    2.2385768   0.06469118      1024000       0.0625 
  992800    1.4916138    1.2096621   -1.0277187    2.2373808   0.06491253      1024000       0.0625 
  992900    1.4956436    1.2143161   -1.0291092    2.2434253  0.063135855      1024000       0.0625 
  993000    1.4946432    1.2232448   -1.0186799    2.2419248   0.06521157      1024000       0.0625 
  993100    1.4985002    1.2220896   -1.0256206    2.2477102  0.065244635      1024000       0.0625 
  993200    1.5024416    1.2277847   -1.0258375    2.2536222  0.065868593      1024000       0.0625 
  993300    1.5003053    1.2215234   -1.0288943    2.2504178  0.065515397      1024000       0.0625 
  993400     1.495001    1.2250395    -1.017422    2.2424614  0.065868031      1024000       0.0625 
  993500    1.4965555    1.2184769   -1.0263163    2.2447932  0.064179747      1024000       0.0625 
  993600    1.4966872    1.2219409   -1.0230498    2.2449907  0.064594524      1024000       0.0625 
  993700    1.4983502    1.2281591   -1.0193261    2.2474852  0.065642433      1024000       0.0625 
  993800    1.4971711    1.2231256    -1.022591    2.2457166  0.065191816      1024000       0.0625 
  993900    1.4963412    1.2210043   -1.0234674    2.2444718  0.063562832      1024000       0.0625 
  994000    1.4951047    1.2266359   -1.0159811     2.242617  0.064591272      1024000       0.0625 
  994100    1.4940098    1.2181263   -1.0228483    2.2409746  0.064041291      1024000       0.0625 
  994200    1.4936163    1.2169768   -1.0234075    2.2403844  0.065824884      1024000       0.0625 
  994300    1.4919149    1.2162546   -1.0215779    2.2378324  0.065471668      1024000       0.0625 
  994400    1.4915165    1.2165498   -1.0206851    2.2372349  0.065551501      1024000       0.0625 
  994500     1.491343    1.2150811   -1.0218935    2.2369745  0.065232603      1024000       0.0625 
  994600    1.4895978    1.2147967     -1.01956    2.2343568  0.065168827      1024000       0.0625 
  994700    1.4956847     1.220819    -1.022668     2.243487  0.064975556      1024000       0.0625 
  994800    1.4957288    1.2287949   -1.0147582    2.2435531  0.065229242      1024000       0.0625 
  994900    1.4982304    1.2292559   -1.0180495    2.2473054  0.065679947      1024000       0.0625 
  995000    1.4987632    1.2315765   -1.0165281    2.2481046  0.065918798      1024000       0.0625 
  995100    1.5024348    1.2331482   -1.0204637    2.2536119  0.065863279      1024000       0.0625 
  995200    1.4991344    1.2301072   -1.0185542    2.2486615  0.065485163      1024000       0.0625 
  995300    1.4959009    1.2233993    -1.020412    2.2438113  0.062867599      1024000       0.0625 
  995400    1.4934266    1.2238875   -1.0162124    2.2400999  0.065027666      1024000       0.0625 
  995500    1.4950302    1.2260959   -1.0164094    2.2425053  0.065015345      1024000       0.0625 
  995600    1.4970149    1.2289901   -1.0164922    2.2454823  0.064069763      1024000       0.0625 
  995700    1.5010589    1.2506001    -1.000948    2.2515481  0.066033661      1024000       0.0625 
  995800    1.5055472    1.2377392   -1.0205413    2.2582805  0.063977104      1024000       0.0625 
  995900    1.5013965    1.2320601   -1.0199945    2.2520546  0.065815833      1024000       0.0625 
  996000    1.4954933     1.226769   -1.0164308    2.2431998  0.064989666      1024000       0.0625 
  996100    1.4963771    1.2227466    -1.021779    2.2445256   0.06439351      1024000       0.0625 
  996200    1.4966466    1.2237453   -1.0211845    2.2449299  0.064054374      1024000       0.0625 
  996300    1.4999235    1.2301748   -1.0196703    2.2498451  0.065267344      1024000       0.0625 
  996400    1.5015297    1.2290285   -1.0232258    2.2522543  0.064925502      1024000       0.0625 
  996500    1.5016664     1.230279   -1.0221804    2.2524594   0.06433964      1024000       0.0625 
  996600    1.4979525    1.2228711   -1.0240176    2.2468887  0.064124591      1024000       0.0625 
  996700    1.4964561    1.2319505   -1.0126935     2.244644  0.065961697      1024000       0.0625 
  996800    1.4967752     1.225159   -1.0199637    2.2451226  0.065199927      1024000       0.0625 
  996900    1.4988037    1.2339099   -1.0142555    2.2481654   0.06542037      1024000       0.0625 
  997000     1.499049    1.2322312   -1.0163022    2.2485334  0.064635012      1024000       0.0625 
  997100    1.4973039    1.2292351   -1.0166807    2.2459158  0.064886539      1024000       0.0625 
  997200    1.4959461    1.2280013   -1.0158778     2.243879  0.064895412      1024000       0.0625 
  997300    1.4957808    1.2255895   -1.0180416    2.2436311  0.063602143      1024000       0.0625 
  997400    1.4896906    1.2252408   -1.0092552     2.234496  0.064166858      1024000       0.0625 
  997500    1.4935067    1.2290348   -1.0111853    2.2402201  0.064983537      1024000       0.0625 
  997600    1.4931581    1.2361822   -1.0035149    2.2396971  0.065416605      1024000       0.0625 
  997700    1.4999173    1.2440622   -1.0057736    2.2498358  0.066932725      1024000       0.0625 
  997800    1.5032825    1.2473358   -1.0075477    2.2548834   0.06555818      1024000       0.0625 
  997900    1.5052289    1.2464937   -1.0113094    2.2578031  0.065455409      1024000       0.0625 
  998000    1.5013238    1.2417956   -1.0101498    2.2519454  0.065262513      1024000       0.0625 
  998100    1.4974225    1.2457039   -1.0003898    2.2460937  0.065159941      1024000       0.0625 
  998200    1.5006284    1.2408007   -1.0101018    2.2509025   0.06516232      1024000       0.0625 
  998300    1.5012801    1.2428791   -1.0090008    2.2518799  0.066165062      1024000       0.0625 
  998400    1.5007373    1.2391622   -1.0119036    2.2510657  0.064322148      1024000       0.0625 
  998500    1.4953145    1.2341246   -1.0088071    2.2429317   0.06488573      1024000       0.0625 
  998600    1.4962314    1.2389127   -1.0053943     2.244307  0.065869084      1024000       0.0625 
  998700    1.4998387    1.2484036   -1.0013143    2.2497179  0.066643078      1024000       0.0625 
  998800    1.4995312    1.2393357    -1.009921    2.2492567  0.064581744      1024000       0.0625 
  998900    1.5005391    1.2424273   -1.0083412    2.2507685  0.064452624      1024000       0.0625 
  999000    1.4990664    1.2450424    -1.003517    2.2485594  0.065365893      1024000       0.0625 
  999100    1.4973033    1.2376276   -1.0082872    2.2459148  0.065499766      1024000       0.0625 
  999200    1.4997961    1.2386869   -1.0109671     2.249654  0.064784803      1024000       0.0625 
  999300    1.4992112    1.2487112   -1.0000654    2.2487766   0.06612306      1024000       0.0625 
  999400    1.4999424    1.2432896   -1.0065838    2.2498734  0.064701314      1024000       0.0625 
  999500    1.5025463    1.2489281   -1.0048511    2.2537793  0.064641314      1024000       0.0625 
  999600    1.5016597      1.24868   -1.0037693    2.2524493  0.064865822      1024000       0.0625 
  999700    1.5027083    1.2464298   -1.0075924    2.2540222  0.065620436      1024000       0.0625 
  999800    1.5020369      1.24741   -1.0056051    2.2530151  0.065328899      1024000       0.0625 
  999900    1.5028712    1.2474821   -1.0067844    2.2542665  0.065764644      1024000       0.0625 
 1000000    1.5006781    1.2414105   -1.0095664    2.2509769  0.065618284      1024000       0.0625 
Loop time of 88183.7 on 64 procs for 1000000 steps with 56008 atoms

Performance: 4898.862 tau/day, 11.340 timesteps/s
18.5% CPU use with 64 MPI tasks x 1 OpenMP threads

MPI task timing breakdown:
Section |  min time  |  avg time  |  max time  |%varavg| %total
---------------------------------------------------------------
Pair    | 127.31     | 567.18     | 5063.4     |3755.3 |  0.64
Neigh   | 230.66     | 894.32     | 11933      |6183.5 |  1.01
Comm    | 44537      | 57216      | 72146      |3899.8 | 64.88
Output  | 2039.2     | 2045.1     | 2052.4     |   7.2 |  2.32
Modify  | 7943.7     | 23136      | 36760      |6708.2 | 26.24
Other   |            | 4326       |            |       |  4.91

Nlocal:    875.125 ave 3995 max 529 min
Histogram: 49 9 2 0 0 2 0 0 0 2
Nghost:    3740.58 ave 9816 max 1681 min
Histogram: 8 34 5 3 1 6 3 0 0 4
Neighs:    0 ave 0 max 0 min
Histogram: 64 0 0 0 0 0 0 0 0 0

Total # of neighbors = 0
Ave neighs/atom = 0
Neighbor list builds = 226923
Dangerous builds = 0




Total wall time: 24:29:46
