LAMMPS (24 Dec 2020)
OMP_NUM_THREADS environment is not set. Defaulting to 1 thread. (src/comm.cpp:94)
  using 1 OpenMP thread(s) per MPI task
#Read the equilibrated lj fluid and add nanocubes

units           lj
atom_style      full
#atom_modify     map array first cubes
dimension       3
boundary        p p f
pair_style      lj/cut/opt 2.5

variable        sigma           equal 1.0
variable        epsilon         equal 1.0
read_restart	restart.dat.10000000
Reading restart file ...
  restart file = 24 Dec 2020, LAMMPS = 24 Dec 2020
WARNING: Restart file used different # of processors: 1048 vs. 768 (src/read_restart.cpp:697)
  restoring atom style full from restart
  orthogonal box = (0.0000000 0.0000000 0.0000000) to (120.00000 120.00000 240.00000)
  6 by 8 by 16 MPI processor grid
  restoring pair style lj/cut/opt from restart
  1714436 atoms
Finding 1-2 1-3 1-4 neighbors ...
  special bond factors lj:    0        0        0       
  special bond factors coul:  0        0        0       
     0 = max # of 1-2 neighbors
     0 = max # of 1-3 neighbors
     0 = max # of 1-4 neighbors
     1 = max # of special neighbors
  special bonds CPU = 9.627 seconds
  read_restart CPU = 11.493 seconds

group		solvent type 1
1154366 atoms in group solvent
group 		hull  type 2
218540 atoms in group hull
group 		dummy type 3
341530 atoms in group dummy

neighbor      0.4 bin
neigh_modify  exclude molecule/intra cubes

pair_modify   shift yes

pair_coeff    1 1 1.0 1.0 #solvent
pair_coeff    2 2 1.0 1.0 1.12 #np
pair_coeff    3 3 0.0 0.0 0.0 #dummy
pair_coeff    2 3 0.0 0.0 0.0 #np dummy
pair_coeff    1 2 ${sol} 1.0  #np solvent
pair_coeff    1 2 0.55 1.0  
pair_coeff    1 3 0.0 0.0 0.0 #dummy solvent


comm_modify   mode multi cutoff/multi 1 2.5 cutoff/multi 2 2.5 cutoff/multi 3 6.95

reset_timestep 	0

balance 	1.05 shift z 10 1.05
Balancing ...
Unused restart file global fix info:
  fix style: STORE, fix ID: msd_COMPUTE_STORE
Unused restart file peratom fix info:
  fix style: STORE, fix ID: bin1_COMPUTE_STORE
  fix style: STORE, fix ID: bin3_COMPUTE_STORE
Neighbor list info ...
  update every 1 steps, delay 10 steps, check yes
  max neighbors/atom: 2000, page size: 100000
  master list distance cutoff = 2.9
  ghost atom cutoff = 6.96
  binsize = 1.45, bins = 83 83 166
  1 neighbor lists, perpetual/occasional/extra = 1 0 0
  (1) pair lj/cut/opt, perpetual
      attributes: half, newton on
      pair build: half/bin/newton
      stencil: half/bin/3d/newton
      bin: standard
 rebalancing time: 0.063 seconds
  iteration count = 5
  initial/final maximal load/proc = 3412.0000 2923.0000
  initial/final imbalance factor  = 1.5284420 1.3093892
  x cuts: 0.0000000 0.16666667 0.33333333 0.50000000 0.66666667 0.83333333 1.0000000
  y cuts: 0.0000000 0.12500000 0.25000000 0.37500000 0.50000000 0.62500000 0.75000000 0.87500000 1.0000000
  z cuts: 0.0000000 0.056640625 0.10742188 0.15429688 0.20117188 0.24609375 0.29296875 0.34765625 0.39453125 0.44921875 0.50195312 0.55273438 0.60351562 0.65429688 0.70507812 0.76757812 1.0000000

####################### WALLS ###########################

variable       epsilonWall equal 2*${epsilon}
variable       epsilonWall equal 2*1
variable       repulsive   equal   0.7147*${sigma}
variable       repulsive   equal   0.7147*1
variable       full	   equal   3*${sigma}
variable       full	   equal   3*1
region         lowWall block EDGE EDGE EDGE EDGE EDGE 2

fix            topWall all wall/lj93 zhi EDGE 	       ${epsilonWall} ${sigma} ${repulsive} units box
fix            topWall all wall/lj93 zhi EDGE 	       2 ${sigma} ${repulsive} units box
fix            topWall all wall/lj93 zhi EDGE 	       2 1 ${repulsive} units box
fix            topWall all wall/lj93 zhi EDGE 	       2 1 0.7147 units box
fix            lowSol solvent wall/lj93 zlo EDGE                ${epsilonWall} ${sigma} ${full} units box
fix            lowSol solvent wall/lj93 zlo EDGE                2 ${sigma} ${full} units box
fix            lowSol solvent wall/lj93 zlo EDGE                2 1 ${full} units box
fix            lowSol solvent wall/lj93 zlo EDGE                2 1 3 units box
fix 	       lowCub cubes wall/lj93 zlo EDGE                ${epsilonWall} ${sigma} ${repulsive} units box
fix 	       lowCub cubes wall/lj93 zlo EDGE                2 ${sigma} ${repulsive} units box
fix 	       lowCub cubes wall/lj93 zlo EDGE                2 1 ${repulsive} units box
fix 	       lowCub cubes wall/lj93 zlo EDGE                2 1 0.7147 units box


###################### COMPUTES ##########################

compute        bin1 solvent chunk/atom bin/1d z lower 1.0 units box
compute        bin3 solvent chunk/atom bin/3d x lower 5.0 y lower 5.0 z lower 5.0 units box

compute 	pe solvent 	   pe/atom
compute 	pe2 all 	   pe/atom

######################  FIXES ############################


fix             peclet solvent ave/chunk 10 10 10000 bin1 density/number norm                  none ave one file density.profile

fix              temp solvent ave/chunk 10 10 10000 bin1 temp norm                  none ave one file temp.profile

fix 		 dens solvent ave/chunk 10 10 500000 bin3 density/number norm 		 none ave one file dens3.profile

fix		 temp2 solvent ave/chunk 10 10 500000 bin3 temp norm none ave one file temp3.profile

fix 		pe solvent ave/chunk 1 1 500000 bin3 c_pe norm none ave one file pe3.profile



################### INTEGRATION

fix             1 cubes rigid/nve/small molecule
  create bodies CPU = 0.052 seconds
  490 rigid bodies with 560070 atoms
  6.9542847 = max distance from body owner to body atom

fix             2 solvent nve



## Thermostat
region          regthermo block EDGE EDGE EDGE EDGE 0 15
group           thermo dynamic solvent region regthermo every 1000
dynamic group thermo defined
fix             3 thermo langevin ${temp} ${temp} 10 156453
fix             3 thermo langevin 1.0 ${temp} 10 156453
fix             3 thermo langevin 1.0 1.0 10 156453

## Evaporation
region		regevap block EDGE EDGE EDGE EDGE 140 EDGE
fix 		4 solvent evaporate ${evap} 1 regevap 156415
fix 		4 solvent evaporate 37 1 regevap 156415


#### Load balancing

fix             bal all balance 1000 1.05 shift z 10 1.05

############### Diagnostics and computes ###################

compute        	com cubes          rigid/local   1 mol x y z
compute        	quat cubes         rigid/local   1 mol quatw quati quatj quatk

compute 	cc2 cubes 	   chunk/atom 	 molecule
compute 	msd cubes 	   msd/chunk 	 cc2

fix 		msd all ave/time  1 1 10000 c_msd[*] file dump.msd ave one mode vector

dump            1 all custom 500000 dump.lammpstrj id mol type x y z vx vy vz c_pe2
dump		sol  solvent custom 500000 dump.soltrj id x y z vx vy vz c_pe
dump		cubetrj cubes custom 500000 cubes.lammpstrj id mol type x y z vx vy vz
dump            com cubes local 500000 dump.*.xyz c_com[*]
dump	        xyz hull xyz 500000 cubes.xyz
#dump            quat cubes      local 100000 dump.*.quat c_quat[*]
dump		order cubes 	local 100000 dump.*.order c_com[*] c_quat[*]
#dump		mol cubes molfile 10000 mol.xyz xyz


dump            2 all image 100000 image.*.png type type zoom 1.5 size 1280 720
dump_modify     2 pad 8
dump		image cubes image 100000 image_cubes.*.png type type zoom 1.5 size 1280 720
dump_modify	image pad 8
dump            3 all movie 5000 movie.avi type type zoom 1.5 size 1280 720
dump		4 cubes movie 5000 movie_cubes.avi type type size 1280 720


thermo          1000
thermo_style    custom step temp epair evdwl etotal press pe ke atoms

restart         1000000 restart.dat
timestep        0.005
timer           full
New timer settings: style=full  mode=nosync  timeout=off

run 		${steps}
run 		30000000
Per MPI rank memory allocation (min/avg/max) = 16.90 | 23.04 | 26.20 Mbytes
Step Temp E_pair E_vdwl TotEng Press PotEng KinEng Atoms 
       0    1.0127961   -2.0688259   -2.0688259   -1.0450528  0.060693547   -2.0688259     1.023773  1714436 
    1000    1.0121226   -2.0684304   -2.0684304    -1.045322  0.075616806   -2.0684304    1.0231084  1714409 
    2000    1.0126334   -2.0688044   -2.0688044   -1.0451636  0.073517186   -2.0688044    1.0236408  1714382 
    3000    1.0121479   -2.0685903   -2.0685903   -1.0454241  0.067589613   -2.0685903    1.0231662  1714355 
    4000    1.0118598   -2.0681062   -2.0681062   -1.0452151  0.072364888   -2.0681062     1.022891  1714328 
    5000    1.0125523   -2.0686611   -2.0686611   -1.0450539  0.073059552   -2.0686611    1.0236072  1714301 
    6000    1.0123657   -2.0684532   -2.0684532   -1.0450186   0.07637972   -2.0684532    1.0234347  1714274 
    7000     1.011147   -2.0680382   -2.0680382   -1.0458195  0.074609097   -2.0680382    1.0222187  1714247 
    8000    1.0112771   -2.0682217   -2.0682217   -1.0458554   0.07065637   -2.0682217    1.0223664  1714220 
    9000    1.0113236    -2.068083    -2.068083   -1.0456535  0.072999967    -2.068083    1.0224295  1714193 
   10000    1.0122028   -2.0684514   -2.0684514   -1.0451169  0.069533053   -2.0684514    1.0233345  1714166 
   11000    1.0112637   -2.0680051   -2.0680051    -1.045604  0.075124727   -2.0680051    1.0224011  1714139 
   12000    1.0114118   -2.0681849   -2.0681849   -1.0456179  0.072051592   -2.0681849     1.022567  1714112 
   13000    1.0116723   -2.0681939   -2.0681939   -1.0453475  0.075051518   -2.0681939    1.0228464  1714085 
   14000    1.0122749   -2.0686412   -2.0686412   -1.0451693  0.071558346   -2.0686412    1.0234719  1714058 
   15000    1.0123434   -2.0689735   -2.0689735   -1.0454163  0.074420763   -2.0689735    1.0235572  1714031 
   16000    1.0109787   -2.0674394   -2.0674394   -1.0452459  0.072796395   -2.0674394    1.0221935  1714004 
   17000    1.0112814   -2.0677325   -2.0677325   -1.0452168  0.069858079   -2.0677325    1.0225157  1713977 
   18000    1.0123423   -2.0688167   -2.0688167   -1.0452122  0.069739892   -2.0688167    1.0236044  1713950 
   19000    1.0126379   -2.0693382   -2.0693382   -1.0454187  0.074910443   -2.0693382    1.0239195  1713923 
   20000    1.0118872   -2.0685139   -2.0685139   -1.0453373  0.073477778   -2.0685139    1.0231766  1713896 
   21000    1.0126242   -2.0691079   -2.0691079     -1.04517  0.072360465   -2.0691079    1.0239379  1713869 
   22000    1.0113666   -2.0675701   -2.0675701   -1.0448878  0.071607519   -2.0675701    1.0226823  1713842 
   23000    1.0117976   -2.0677276   -2.0677276   -1.0445933  0.073138448   -2.0677276    1.0231343  1713815 
   24000    1.0116052   -2.0675123   -2.0675123   -1.0445565  0.075324304   -2.0675123    1.0229559  1713788 
   25000    1.0120843   -2.0685896   -2.0685896   -1.0451331  0.069775897   -2.0685896    1.0234565  1713761 
   26000    1.0121806   -2.0682006   -2.0682006   -1.0446306  0.073853474   -2.0682006      1.02357  1713734 
   27000    1.0109959   -2.0674242   -2.0674242   -1.0450361  0.073928124   -2.0674242    1.0223881  1713707 
   28000    1.0122768   -2.0687336   -2.0687336   -1.0450341    0.0751993   -2.0687336    1.0236995  1713680 
   29000     1.012505   -2.0686508   -2.0686508   -1.0447043  0.072212661   -2.0686508    1.0239465  1713653 
   30000    1.0121093   -2.0687776   -2.0687776   -1.0452152   0.07318912   -2.0687776    1.0235624  1713626 
   31000    1.0113165    -2.068142    -2.068142   -1.0453653  0.074167275    -2.068142    1.0227768  1713599 
   32000    1.0123824   -2.0692871   -2.0692871   -1.0454162  0.071159478   -2.0692871    1.0238709  1713572 
   33000    1.0106761   -2.0673756   -2.0673756   -1.0452143  0.073609049   -2.0673756    1.0221613  1713545 
   34000     1.011986   -2.0685326   -2.0685326   -1.0450304   0.07266576   -2.0685326    1.0235022  1713518 
   35000    1.0126254   -2.0688027   -2.0688027   -1.0446377  0.074132713   -2.0688027     1.024165  1713491 
   36000    1.0119875    -2.068167    -2.068167    -1.044631  0.074465643    -2.068167     1.023536  1713464 
   37000    1.0117315   -2.0681915   -2.0681915   -1.0448977  0.073275342   -2.0681915    1.0232937  1713436 
   38000    1.0120917   -2.0683417   -2.0683417   -1.0446675  0.071542527   -2.0683417    1.0236742  1713409 
   39000    1.0118099   -2.0683596   -2.0683596   -1.0449543  0.073284452   -2.0683596    1.0234053  1713382 
   40000    1.0125528   -2.0687948   -2.0687948   -1.0446219  0.074733431   -2.0687948    1.0241729  1713355 
   41000    1.0121175   -2.0684075   -2.0684075   -1.0446588   0.07548333   -2.0684075    1.0237487  1713328 
   42000    1.0127994   -2.0690822   -2.0690822   -1.0446275  0.072554404   -2.0690822    1.0244546  1713301 
   43000     1.011696   -2.0675521   -2.0675521   -1.0441975  0.073890234   -2.0675521    1.0233546  1713274 
   44000    1.0113625   -2.0666421   -2.0666421   -1.0436086  0.074193847   -2.0666421    1.0230334  1713247 
   45000    1.0114095   -2.0667511   -2.0667511   -1.0436541  0.069421159   -2.0667511     1.023097  1713220 
   46000    1.0113992   -2.0677786   -2.0677786   -1.0446758    0.0705737   -2.0677786    1.0231028  1713193 
   47000    1.0118237   -2.0672533   -2.0672533    -1.043705  0.073919776   -2.0672533    1.0235483  1713166 
   48000    1.0111922   -2.0669245   -2.0669245   -1.0439988  0.073373158   -2.0669245    1.0229257  1713139 
   49000    1.0122868   -2.0680231   -2.0680231    -1.043974  0.070401767   -2.0680231    1.0240491  1713112 
   50000    1.0107244   -2.0661388   -2.0661388   -1.0436541   0.07416163   -2.0661388    1.0224846  1713085 
   51000    1.0119672   -2.0665371   -2.0665371   -1.0427791  0.071496083   -2.0665371     1.023758  1713058 
   52000    1.0113499   -2.0660994   -2.0660994   -1.0429498   0.07026196   -2.0660994    1.0231497  1713031 
   53000    1.0125506     -2.06648     -2.06648   -1.0420994  0.073699983     -2.06648    1.0243806  1713004 
   54000    1.0118063     -2.06581     -2.06581   -1.0421663  0.071018111     -2.06581    1.0236437  1712977 
   55000    1.0114424   -2.0655646   -2.0655646   -1.0422729  0.073619143   -2.0655646    1.0232916  1712950 
   56000    1.0128724   -2.0660912   -2.0660912   -1.0413367  0.070886322   -2.0660912    1.0247545  1712923 
   57000    1.0115434   -2.0653084   -2.0653084   -1.0418824  0.073305294   -2.0653084     1.023426  1712896 
   58000    1.0119345   -2.0654668   -2.0654668   -1.0416288  0.072667956   -2.0654668    1.0238379  1712869 
   59000    1.0117113   -2.0654476   -2.0654476   -1.0418193  0.071459801   -2.0654476    1.0236282  1712842 
   60000    1.0107222   -2.0652621   -2.0652621   -1.0426184  0.071416775   -2.0652621    1.0226436  1712815 
   61000    1.0111393   -2.0654861   -2.0654861   -1.0424044   0.07104258   -2.0654861    1.0230817  1712788 
   62000    1.0114677   -2.0655639   -2.0655639   -1.0421338  0.070556445   -2.0655639    1.0234301  1712761 
   63000    1.0125973   -2.0669352   -2.0669352    -1.042346  0.073645183   -2.0669352    1.0245892  1712734 
   64000    1.0107222   -2.0647589   -2.0647589   -1.0420509  0.071879911   -2.0647589     1.022708  1712707 
   65000    1.0102102   -2.0642172   -2.0642172   -1.0420111  0.077636453   -2.0642172    1.0222061  1712680 
   66000    1.0100579   -2.0639919   -2.0639919   -1.0419238  0.069922674   -2.0639919    1.0220681  1712653 
   67000     1.010744   -2.0647887   -2.0647887   -1.0420101  0.070262928   -2.0647887    1.0227785  1712626 
   68000    1.0114051   -2.0653042   -2.0653042   -1.0418406   0.07208892   -2.0653042    1.0234636  1712599 
   69000      1.01035   -2.0643164   -2.0643164   -1.0419043   0.06892758   -2.0643164     1.022412  1712572 
   70000    1.0108962   -2.0647119   -2.0647119   -1.0417309  0.067959272   -2.0647119    1.0229809  1712545 
   71000    1.0101056   -2.0641965   -2.0641965   -1.0419995  0.066662737   -2.0641965     1.022197  1712518 
   72000    1.0102416   -2.0642252   -2.0642252   -1.0418745  0.072442074   -2.0642252    1.0223507  1712491 
   73000     1.009136   -2.0633073   -2.0633073   -1.0420593  0.070436784   -2.0633073     1.021248  1712464 
   74000     1.009885   -2.0640327   -2.0640327     -1.04201  0.069799694   -2.0640327    1.0220227  1712436 
   75000    1.0107356   -2.0643633   -2.0643633   -1.0414637  0.070532174   -2.0643633    1.0228996  1712409 
   76000    1.0114345   -2.0647069   -2.0647069   -1.0410839  0.070054162   -2.0647069     1.023623  1712382 
   77000    1.0103801   -2.0632803   -2.0632803   -1.0407082  0.070094513   -2.0632803    1.0225721  1712355 
   78000    1.0115949   -2.0644998   -2.0644998   -1.0406822  0.073113615   -2.0644998    1.0238177  1712328 
   79000    1.0105377   -2.0635083   -2.0635083   -1.0407444  0.072875758   -2.0635083    1.0227638  1712301 
   80000    1.0105669   -2.0635965   -2.0635965    -1.040787  0.067359383   -2.0635965    1.0228095  1712274 
   81000    1.0108148   -2.0639614   -2.0639614   -1.0408849  0.072141902   -2.0639614    1.0230766  1712247 
   82000    1.0113072   -2.0647026   -2.0647026   -1.0411115  0.074126231   -2.0647026    1.0235911  1712220 
   83000    1.0104638    -2.063918    -2.063918   -1.0411645   0.06934208    -2.063918    1.0227535  1712193 
   84000    1.0106692    -2.063753    -2.063753   -1.0407754  0.070364342    -2.063753    1.0229776  1712166 
   85000    1.0106495   -2.0633657   -2.0633657   -1.0403919  0.070488112   -2.0633657    1.0229738  1712139 
   86000    1.0118548   -2.0652424   -2.0652424   -1.0410325  0.073314896   -2.0652424    1.0242099  1712112 
   87000    1.0099998   -2.0633887   -2.0633887   -1.0410403  0.070615343   -2.0633887    1.0223484  1712085 
   88000    1.0111603   -2.0644104   -2.0644104   -1.0408712   0.07124598   -2.0644104    1.0235392  1712058 
   89000    1.0113251   -2.0647788   -2.0647788   -1.0410566  0.072449787   -2.0647788    1.0237222  1712031 
   90000    1.0113888   -2.0649147   -2.0649147   -1.0411119  0.075740042   -2.0649147    1.0238028  1712004 
   91000     1.011107    -2.064684    -2.064684   -1.0411504  0.070978863    -2.064684    1.0235337  1711977 
   92000    1.0108653   -2.0647062   -2.0647062   -1.0414011  0.069976884   -2.0647062    1.0233051  1711950 
   93000    1.0105871   -2.0643488   -2.0643488   -1.0413091  0.074476212   -2.0643488    1.0230397  1711923 
   94000    1.0099945   -2.0639417   -2.0639417   -1.0414858  0.074572293   -2.0639417    1.0224559  1711896 
   95000     1.009779   -2.0641398   -2.0641398    -1.041886  0.069706803   -2.0641398    1.0222538  1711869 
   96000     1.012217   -2.0661454   -2.0661454   -1.0414072  0.070103595   -2.0661454    1.0247381  1711842 
   97000    1.0104637   -2.0642456   -2.0642456   -1.0412663  0.073068877   -2.0642456    1.0229793  1711815 
   98000    1.0107185   -2.0642893   -2.0642893   -1.0410359  0.073359576   -2.0642893    1.0232534  1711788 
   99000    1.0107414   -2.0638168   -2.0638168   -1.0405241  0.074303926   -2.0638168    1.0232927  1711761 
  100000     1.010589   -2.0641618   -2.0641618   -1.0410072  0.070632587   -2.0641618    1.0231546  1711734 
  101000    1.0105593   -2.0645843   -2.0645843   -1.0414436  0.070796281   -2.0645843    1.0231406  1711707 
  102000    1.0108602   -2.0648471   -2.0648471   -1.0413858  0.072504955   -2.0648471    1.0234614  1711680 
  103000    1.0106532   -2.0645824   -2.0645824   -1.0413144  0.071225185   -2.0645824     1.023268  1711653 
  104000    1.0102893   -2.0640237   -2.0640237    -1.041108  0.072295835   -2.0640237    1.0229157  1711626 
  105000    1.0109588   -2.0641668   -2.0641668   -1.0405571   0.07027419   -2.0641668    1.0236097  1711599 
  106000    1.0104113    -2.064129    -2.064129   -1.0410575  0.074864847    -2.064129    1.0230714  1711572 
  107000    1.0099251    -2.063679    -2.063679   -1.0410837  0.071526017    -2.063679    1.0225953  1711545 
  108000     1.010183   -2.0632745   -2.0632745   -1.0404019  0.071110192   -2.0632745    1.0228726  1711518 
  109000    1.0098445   -2.0629769   -2.0629769    -1.040431   0.07307983   -2.0629769    1.0225459  1711491 
  110000    1.0104213   -2.0637061   -2.0637061     -1.04056   0.07211664   -2.0637061    1.0231461  1711464 
  111000    1.0112578   -2.0644617   -2.0644617   -1.0404518  0.071904351   -2.0644617    1.0240099  1711436 
  112000    1.0108639    -2.064575    -2.064575   -1.0409478  0.073862057    -2.064575    1.0236272  1711409 
  113000    1.0097115    -2.063243    -2.063243   -1.0407666  0.073645933    -2.063243    1.0224764  1711382 
  114000    1.0097162   -2.0631244   -2.0631244   -1.0406271  0.076052773   -2.0631244    1.0224973  1711355 
  115000    1.0096713   -2.0632545   -2.0632545   -1.0407866  0.070740502   -2.0632545    1.0224679  1711328 
  116000    1.0103203   -2.0632949   -2.0632949   -1.0401536  0.072656976   -2.0632949    1.0231413  1711301 
  117000     1.010862    -2.063806    -2.063806      -1.0401  0.070257422    -2.063806     1.023706  1711274 
  118000    1.0110792   -2.0634247   -2.0634247   -1.0394826  0.070917558   -2.0634247    1.0239421  1711247 
  119000    1.0102334   -2.0631309   -2.0631309   -1.0400292  0.072480804   -2.0631309    1.0231017  1711220 
  120000    1.0109253   -2.0638643   -2.0638643   -1.0400458  0.071790312   -2.0638643    1.0238186  1711193 
  121000    1.0099004   -2.0629211   -2.0629211   -1.0401243   0.06799799   -2.0629211    1.0227968  1711166 
  122000    1.0092212   -2.0621106   -2.0621106   -1.0399856  0.072455991   -2.0621106     1.022125  1711139 
  123000    1.0092852   -2.0628181   -2.0628181   -1.0406122  0.072222646   -2.0628181    1.0222059  1711112 
  124000    1.0103325   -2.0639539   -2.0639539    -1.040671  0.070308912   -2.0639539    1.0232829  1711085 
  125000    1.0084555   -2.0618994   -2.0618994   -1.0405015  0.073048082   -2.0618994    1.0213978  1711058 
  126000    1.0092632   -2.0630519   -2.0630519   -1.0408198   0.07229279   -2.0630519     1.022232  1711031 
  127000    1.0086009   -2.0622704   -2.0622704    -1.040693  0.069457761   -2.0622704    1.0215774  1711004 
  128000    1.0084891   -2.0623907   -2.0623907   -1.0409104  0.070753652   -2.0623907    1.0214803  1710977 
  129000    1.0087355   -2.0624585   -2.0624585   -1.0407125  0.068461964   -2.0624585     1.021746  1710950 
  130000    1.0088565   -2.0622461   -2.0622461   -1.0403614  0.072134739   -2.0622461    1.0218847  1710923 
  131000    1.0091373    -2.062038    -2.062038   -1.0398528  0.068900055    -2.062038    1.0221852  1710896 
  132000    1.0088394   -2.0625515   -2.0625515   -1.0406518   0.06644247   -2.0625515    1.0218996  1710869 
  133000    1.0092175   -2.0633515   -2.0633515   -1.0410528  0.074475345   -2.0633515    1.0222987  1710842 
  134000    1.0092691   -2.0632507   -2.0632507   -1.0408835  0.078004079   -2.0632507    1.0223672  1710815 
  135000    1.0095737   -2.0634788   -2.0634788   -1.0407871  0.068684833   -2.0634788    1.0226918  1710788 
  136000    1.0090912   -2.0627426   -2.0627426   -1.0405234    0.0672062   -2.0627426    1.0222192  1710761 
  137000    1.0084683   -2.0623859   -2.0623859   -1.0407816  0.074889386   -2.0623859    1.0216043  1710734 
  138000    1.0094997    -2.063008    -2.063008   -1.0403428  0.073113076    -2.063008    1.0226652  1710707 
  139000    1.0095899   -2.0630243   -2.0630243   -1.0402515  0.069052223   -2.0630243    1.0227728  1710680 
  140000    1.0104329   -2.0639455   -2.0639455   -1.0403025  0.072416614   -2.0639455    1.0236429  1710653 
  141000    1.0091714   -2.0625938   -2.0625938   -1.0402126  0.073045455   -2.0625938    1.0223811  1710626 
  142000    1.0093485   -2.0631294   -2.0631294   -1.0405528  0.068229682   -2.0631294    1.0225766  1710599 
  143000    1.0079989   -2.0619467   -2.0619467   -1.0407213  0.072727215   -2.0619467    1.0212255  1710572 
  144000    1.0099193   -2.0628394   -2.0628394   -1.0396522   0.07073681   -2.0628394    1.0231872  1710545 
  145000     1.007779   -2.0602559   -2.0602559    -1.039221  0.073821897   -2.0602559     1.021035  1710518 
  146000    1.0090944   -2.0618506   -2.0618506   -1.0394669  0.071828137   -2.0618506    1.0223837  1710491 
  147000    1.0088683   -2.0618968   -2.0618968   -1.0397259  0.070097474   -2.0618968    1.0221709  1710464 
  148000    1.0073939   -2.0603471   -2.0603471   -1.0396534   0.07265895   -2.0603471    1.0206937  1710436 
  149000    1.0087275    -2.061719    -2.061719    -1.039658  0.070717503    -2.061719     1.022061  1710409 
  150000    1.0076003   -2.0608008   -2.0608008   -1.0398657  0.070894904   -2.0608008    1.0209351  1710382 
  151000    1.0077371   -2.0608519   -2.0608519   -1.0397621  0.068632025   -2.0608519    1.0210898  1710355 
  152000    1.0083689   -2.0612909   -2.0612909   -1.0395448   0.06775999   -2.0612909    1.0217461  1710328 
  153000    1.0078787   -2.0605777   -2.0605777   -1.0393122  0.070571286   -2.0605777    1.0212655  1710301 
  154000    1.0085785   -2.0615559   -2.0615559   -1.0395652  0.072665276   -2.0615559    1.0219907  1710274 
  155000    1.0086669   -2.0613276   -2.0613276   -1.0392311  0.073198052   -2.0613276    1.0220964  1710247 
  156000    1.0085693   -2.0611402   -2.0611402   -1.0391265  0.072299464   -2.0611402    1.0220137  1710220 
  157000    1.0083133   -2.0611336   -2.0611336   -1.0393632  0.070750702   -2.0611336    1.0217704  1710193 
  158000    1.0081133   -2.0605846   -2.0605846   -1.0390007  0.070304721   -2.0605846    1.0215839  1710166 
  159000    1.0078398   -2.0602297   -2.0602297   -1.0389068  0.070310442   -2.0602297    1.0213228  1710139 
  160000    1.0093333   -2.0617818   -2.0617818   -1.0389293  0.070318415   -2.0617818    1.0228525  1710112 
  161000    1.0079942   -2.0602275   -2.0602275   -1.0387159  0.069319659   -2.0602275    1.0215116  1710085 
  162000    1.0090467   -2.0613051   -2.0613051   -1.0387108   0.06932793   -2.0613051    1.0225944  1710058 
  163000    1.0091649   -2.0609897   -2.0609897   -1.0382595  0.074220393   -2.0609897    1.0227303  1710031 
  164000    1.0095892   -2.0610488   -2.0610488   -1.0378724  0.070552093   -2.0610488    1.0231764  1710004 
  165000    1.0091289   -2.0603715   -2.0603715   -1.0376454  0.074748631   -2.0603715    1.0227261  1709977 
  166000    1.0091493   -2.0602106   -2.0602106   -1.0374477  0.074863328   -2.0602106    1.0227629  1709950 
  167000    1.0087455   -2.0602432   -2.0602432   -1.0378733  0.070863339   -2.0602432    1.0223698  1709923 
  168000     1.008878   -2.0601253   -2.0601253   -1.0376051  0.073787075   -2.0601253    1.0225202  1709896 
  169000    1.0085351   -2.0603392   -2.0603392   -1.0381504  0.069529615   -2.0603392    1.0221888  1709869 
  170000    1.0081463   -2.0597452   -2.0597452   -1.0379343  0.070896895   -2.0597452    1.0218109  1709842 
  171000    1.0089035   -2.0602065   -2.0602065   -1.0376121  0.073728835   -2.0602065    1.0225945  1709815 
  172000    1.0082706   -2.0598897   -2.0598897   -1.0379205  0.072140934   -2.0598897    1.0219692  1709788 
  173000    1.0092469   -2.0605837   -2.0605837   -1.0376088     0.073421   -2.0605837    1.0229749  1709761 
  174000    1.0078009   -2.0591945   -2.0591945   -1.0376691  0.069477164   -2.0591945    1.0215254  1709734 
  175000    1.0080251   -2.0591591   -2.0591591   -1.0373903  0.070237751   -2.0591591    1.0217687  1709707 
  176000    1.0076718   -2.0588704   -2.0588704   -1.0374437  0.073121084   -2.0588704    1.0214267  1709680 
  177000    1.0089968   -2.0600748   -2.0600748   -1.0372888  0.071295598   -2.0600748     1.022786  1709653 
  178000    1.0091881   -2.0600338   -2.0600338   -1.0370377  0.073619929   -2.0600338     1.022996  1709626 
  179000    1.0083002   -2.0595808   -2.0595808   -1.0374687  0.073364677   -2.0595808    1.0221121  1709599 
  180000    1.0085665   -2.0596894   -2.0596894   -1.0372911  0.071217588   -2.0596894    1.0223983  1709572 
  181000    1.0086637   -2.0597346   -2.0597346   -1.0372217  0.069121548   -2.0597346     1.022513  1709545 
  182000    1.0092214   -2.0605777   -2.0605777   -1.0374833  0.067140304   -2.0605777    1.0230944  1709518 
  183000    1.0083054   -2.0597433   -2.0597433   -1.0375613  0.076146215   -2.0597433     1.022182  1709491 
  184000    1.0083824   -2.0600642   -2.0600642    -1.037788  0.071163634   -2.0600642    1.0222762  1709464 
  185000    1.0080607   -2.0593324   -2.0593324   -1.0373656  0.073793749   -2.0593324    1.0219668  1709436 
  186000    1.0086394   -2.0596052   -2.0596052   -1.0370356  0.071841697   -2.0596052    1.0225696  1709409 
  187000     1.008606   -2.0594626   -2.0594626   -1.0369107  0.066611908   -2.0594626    1.0225519  1709382 
  188000    1.0076586   -2.0583107   -2.0583107   -1.0367031  0.075140263   -2.0583107    1.0216076  1709355 
  189000    1.0066953   -2.0575077   -2.0575077   -1.0368607  0.071010104   -2.0575077     1.020647  1709328 
  190000     1.007431   -2.0581492   -2.0581492   -1.0367401  0.069576319   -2.0581492    1.0214091  1709301 
  191000    1.0084157   -2.0588129   -2.0588129   -1.0363893  0.070587015   -2.0588129    1.0224236  1709274 
  192000    1.0076684   -2.0580358   -2.0580358   -1.0363537  0.071564685   -2.0580358     1.021682  1709247 
  193000    1.0086728   -2.0587649   -2.0587649   -1.0360483  0.072544223   -2.0587649    1.0227166  1709220 
  194000    1.0088256   -2.0591376   -2.0591376   -1.0362499   0.06876376   -2.0591376    1.0228876  1709193 
  195000     1.008562   -2.0581352   -2.0581352   -1.0354987  0.069391579   -2.0581352    1.0226365  1709166 
  196000     1.008256   -2.0571451   -2.0571451   -1.0348026  0.069893503   -2.0571451    1.0223424  1709139 
  197000    1.0074775   -2.0564017   -2.0564017   -1.0348324  0.075824037   -2.0564017    1.0215692  1709112 
  198000    1.0085018   -2.0578445   -2.0578445   -1.0352206  0.068726661   -2.0578445     1.022624  1709085 
  199000    1.0083219   -2.0570151   -2.0570151   -1.0345574  0.071234502   -2.0570151    1.0224577  1709058 
  200000    1.0079309   -2.0568723   -2.0568723   -1.0347949  0.069166592   -2.0568723    1.0220773  1709031 
  201000    1.0086154    -2.057963    -2.057963   -1.0351753  0.070685726    -2.057963    1.0227877  1709004 
  202000    1.0082386   -2.0577009   -2.0577009   -1.0352793  0.072383717   -2.0577009    1.0224217  1708977 
  203000     1.007869   -2.0573159   -2.0573159   -1.0352529  0.071209614   -2.0573159     1.022063  1708950 
  204000    1.0080005   -2.0574469   -2.0574469   -1.0352344  0.071303892   -2.0574469    1.0222125  1708923 
  205000    1.0072113   -2.0568244   -2.0568244   -1.0353961   0.06918796   -2.0568244    1.0214283  1708896 
  206000    1.0074301   -2.0571145   -2.0571145   -1.0354481   0.06869503   -2.0571145    1.0216664  1708869 
  207000    1.0081168   -2.0576805   -2.0576805   -1.0353015  0.071571496   -2.0576805    1.0223789  1708842 
  208000    1.0071316   -2.0562954   -2.0562954   -1.0348995  0.070282184   -2.0562954    1.0213959  1708815 
  209000    1.0066339   -2.0561019   -2.0561019   -1.0351946  0.074543682   -2.0561019    1.0209074  1708788 
  210000     1.007143   -2.0562493   -2.0562493   -1.0348096  0.070211125   -2.0562493    1.0214397  1708761 
  211000    1.0082636   -2.0571639   -2.0571639   -1.0345715   0.06882998   -2.0571639    1.0225924  1708734 
  212000    1.0076631   -2.0563058   -2.0563058   -1.0343063   0.07294282   -2.0563058    1.0219995  1708707 
  213000    1.0081875   -2.0571437   -2.0571437   -1.0345961  0.068380712   -2.0571437    1.0225475  1708680 
  214000     1.007269   -2.0564523   -2.0564523   -1.0348202  0.071335947   -2.0564523    1.0216321  1708653 
  215000    1.0060515   -2.0553888   -2.0553888   -1.0349754  0.068516138   -2.0553888    1.0204134  1708626 
  216000    1.0061316   -2.0555927   -2.0555927    -1.035082  0.066567263   -2.0555927    1.0205107  1708599 
  217000    1.0072254   -2.0562764   -2.0562764     -1.03464  0.073458038   -2.0562764    1.0216363  1708572 
  218000    1.0072666   -2.0564625   -2.0564625   -1.0347682  0.071708034   -2.0564625    1.0216943  1708545 
  219000    1.0077576   -2.0565938   -2.0565938   -1.0343853  0.068712145   -2.0565938    1.0222084  1708518 
  220000    1.0079978   -2.0568625   -2.0568625   -1.0343942  0.070097085   -2.0568625    1.0224682  1708491 
  221000     1.008003   -2.0568375   -2.0568375   -1.0343478   0.07283891   -2.0568375    1.0224897  1708464 
  222000    1.0082682   -2.0573452   -2.0573452   -1.0345697  0.072959566   -2.0573452    1.0227755  1708436 
  223000    1.0078144   -2.0571479   -2.0571479   -1.0348166  0.070959334   -2.0571479    1.0223313  1708409 
  224000    1.0071328   -2.0566353   -2.0566353   -1.0349794  0.070493455   -2.0566353     1.021656  1708382 
  225000    1.0065538   -2.0559968   -2.0559968   -1.0349119  0.068841896   -2.0559968    1.0210849  1708355 
  226000    1.0072769   -2.0566336   -2.0566336   -1.0347991  0.070538521   -2.0566336    1.0218345  1708328 
  227000    1.0067329   -2.0560475   -2.0560475   -1.0347488  0.067966845   -2.0560475    1.0212988  1708301 
  228000    1.0073134   -2.0562027   -2.0562027   -1.0342988  0.071140729   -2.0562027    1.0219039  1708274 
  229000    1.0063901   -2.0552093   -2.0552093    -1.034226  0.072742071   -2.0552093    1.0209833  1708247 
  230000    1.0078169   -2.0567082   -2.0567082   -1.0342613  0.072130681   -2.0567082     1.022447  1708220 
  231000    1.0072612    -2.056215    -2.056215   -1.0343157  0.071993603    -2.056215    1.0218994  1708193 
  232000    1.0074464   -2.0566069   -2.0566069   -1.0345034   0.06785259   -2.0566069    1.0221034  1708166 
  233000    1.0074505   -2.0565223   -2.0565223   -1.0343987  0.071840686   -2.0565223    1.0221237  1708139 
  234000    1.0078849   -2.0569577   -2.0569577   -1.0343771  0.065773525   -2.0569577    1.0225806  1708112 
  235000    1.0081141   -2.0567149   -2.0567149   -1.0338856  0.075067581   -2.0567149    1.0228293  1708085 
  236000    1.0077791   -2.0566845   -2.0566845    -1.034179  0.071371859   -2.0566845    1.0225055  1708058 
  237000     1.008004   -2.0566695   -2.0566695   -1.0339195  0.070535343   -2.0566695      1.02275  1708031 
  238000    1.0087993   -2.0572688   -2.0572688   -1.0336957   0.06929449   -2.0572688    1.0235731  1708004 
  239000    1.0082995   -2.0563746   -2.0563746   -1.0332925   0.07514966   -2.0563746    1.0230821  1707977 
  240000    1.0081252   -2.0565721   -2.0565721   -1.0336507  0.069090063   -2.0565721    1.0229214  1707950 
  241000    1.0080229   -2.0567593   -2.0567593   -1.0339255  0.069770632   -2.0567593    1.0228337  1707923 
  242000    1.0080048   -2.0562272   -2.0562272   -1.0333956  0.074268502   -2.0562272    1.0228316  1707896 
  243000    1.0074885   -2.0553328   -2.0553328    -1.033009  0.072425027   -2.0553328    1.0223238  1707869 
  244000    1.0074204   -2.0553853   -2.0553853   -1.0331143  0.069396658   -2.0553853    1.0222709  1707842 
  245000    1.0075728   -2.0556425   -2.0556425   -1.0332008  0.073107505   -2.0556425    1.0224417  1707815 
  246000    1.0069646   -2.0548765   -2.0548765   -1.0330358  0.072834014   -2.0548765    1.0218407  1707788 
  247000    1.0074645   -2.0550039   -2.0550039   -1.0326398  0.072589405   -2.0550039    1.0223642  1707761 
  248000    1.0082884   -2.0559338   -2.0559338   -1.0327175  0.070388201   -2.0559338    1.0232164  1707734 
  249000    1.0068913   -2.0550759   -2.0550759   -1.0332611  0.072817598   -2.0550759    1.0218148  1707707 
  250000    1.0068422   -2.0548343   -2.0548343   -1.0330531  0.069942065   -2.0548343    1.0217811  1707680 
  251000    1.0068905   -2.0550606   -2.0550606   -1.0332143  0.074244743   -2.0550606    1.0218462  1707653 
  252000    1.0072329   -2.0553153   -2.0553153   -1.0331054  0.071861868   -2.0553153    1.0222099  1707626 
  253000    1.0068328   -2.0557981   -2.0557981    -1.033978  0.072085842   -2.0557981      1.02182  1707599 
  254000    1.0076888   -2.0563394   -2.0563394   -1.0336345  0.073191619   -2.0563394     1.022705  1707572 
  255000    1.0075564   -2.0564178   -2.0564178   -1.0338311  0.070292439   -2.0564178    1.0225868  1707545 
  256000    1.0069033   -2.0559224   -2.0559224   -1.0339824  0.069009345   -2.0559224    1.0219401  1707518 
  257000    1.0060242   -2.0546915   -2.0546915   -1.0336275  0.071550974   -2.0546915     1.021064  1707491 
  258000    1.0069629   -2.0555688   -2.0555688   -1.0335359   0.07039715   -2.0555688    1.0220329  1707464 
  259000    1.0067223   -2.0549573   -2.0549573   -1.0331519  0.071061619   -2.0549573    1.0218054  1707436 
  260000    1.0084328   -2.0567953   -2.0567953   -1.0332375   0.07284522   -2.0567953    1.0235577  1707409 
  261000    1.0070384   -2.0555375   -2.0555375   -1.0333789  0.073637178   -2.0555375    1.0221586  1707382 
  262000     1.006881   -2.0552488   -2.0552488   -1.0332338  0.071730553   -2.0552488     1.022015  1707355 
  263000    1.0070063   -2.0552461   -2.0552461   -1.0330877   0.07311897   -2.0552461    1.0221583  1707328 
  264000     1.007402    -2.055205    -2.055205   -1.0326288  0.070958249    -2.055205    1.0225762  1707301 
  265000    1.0068803   -2.0541872   -2.0541872   -1.0321244   0.07009851   -2.0541872    1.0220628  1707274 
  266000    1.0071322   -2.0540887   -2.0540887   -1.0317541  0.070172854   -2.0540887    1.0223346  1707247 
  267000    1.0072424   -2.0538145   -2.0538145   -1.0313519  0.070538452   -2.0538145    1.0224626  1707220 
  268000    1.0074044   -2.0545938   -2.0545938   -1.0319505  0.070691149   -2.0545938    1.0226433  1707193 
  269000    1.0072947   -2.0545813   -2.0545813   -1.0320331  0.068872168   -2.0545813    1.0225481  1707166 
  270000    1.0071531   -2.0540879   -2.0540879   -1.0316674  0.071594678   -2.0540879    1.0224205  1707139 
  271000    1.0068521   -2.0540791   -2.0540791    -1.031948  0.073818211   -2.0540791    1.0221311  1707112 
  272000    1.0057879   -2.0538991   -2.0538991   -1.0328321  0.070791647   -2.0538991     1.021067  1707085 
  273000    1.0066846   -2.0549111   -2.0549111   -1.0329177  0.074981017   -2.0549111    1.0219934  1707058 
  274000    1.0074935   -2.0558103   -2.0558103   -1.0329795  0.068652274   -2.0558103    1.0228308  1707031 
  275000    1.0065003   -2.0548951   -2.0548951   -1.0330565  0.071319676   -2.0548951    1.0218386  1707004 
  276000    1.0064169   -2.0547269   -2.0547269   -1.0329568  0.073132777   -2.0547269    1.0217701  1706977 
  277000    1.0066898   -2.0547131   -2.0547131   -1.0326498  0.072446721   -2.0547131    1.0220633  1706950 
  278000    1.0070779   -2.0551075   -2.0551075   -1.0326339  0.075265547   -2.0551075    1.0224736  1706923 
  279000    1.0058389   -2.0538508   -2.0538508    -1.032619  0.069913193   -2.0538508    1.0212318  1706896 
  280000    1.0056338    -2.053573    -2.053573   -1.0325333   0.07300342    -2.053573    1.0210397  1706869 
  281000    1.0052382   -2.0529032   -2.0529032    -1.032249  0.072485626   -2.0529032    1.0206541  1706842 
  282000    1.0055144   -2.0538389   -2.0538389   -1.0328882  0.067842596   -2.0538389    1.0209507  1706815 
  283000    1.0063612   -2.0545169   -2.0545169   -1.0326902  0.069004189   -2.0545169    1.0218267  1706788 
  284000    1.0058065   -2.0536926   -2.0536926   -1.0324129  0.070566685   -2.0536926    1.0212797  1706761 
  285000    1.0057832   -2.0536497   -2.0536497   -1.0323775  0.068109332   -2.0536497    1.0212722  1706734 
  286000    1.0064151   -2.0539314   -2.0539314   -1.0320015  0.076565898   -2.0539314      1.02193  1706707 
  287000    1.0054311   -2.0529997   -2.0529997   -1.0320528  0.069532583   -2.0529997     1.020947  1706680 
  288000    1.0053514   -2.0529838   -2.0529838   -1.0321016  0.069742333   -2.0529838    1.0208822  1706653 
  289000    1.0054094   -2.0530965   -2.0530965   -1.0321394  0.071995592   -2.0530965    1.0209571  1706626 
  290000    1.0056072     -2.05269     -2.05269   -1.0315158  0.073540675     -2.05269    1.0211742  1706599 
  291000     1.006175   -2.0533013   -2.0533013   -1.0315343  0.069824741   -2.0533013     1.021767  1706572 
  292000     1.005879   -2.0526728   -2.0526728   -1.0311902  0.067575395   -2.0526728    1.0214825  1706545 
  293000    1.0068832   -2.0539289   -2.0539289   -1.0314104  0.070506398   -2.0539289    1.0225185  1706518 
  294000      1.00554   -2.0523237   -2.0523237   -1.0311531  0.071980803   -2.0523237    1.0211706  1706491 
  295000    1.0068446   -2.0536623   -2.0536623   -1.0311506   0.06777872   -2.0536623    1.0225117  1706464 
  296000    1.0066997   -2.0537465   -2.0537465   -1.0313652  0.072164699   -2.0537465    1.0223813  1706436 
  297000    1.0053809   -2.0530345   -2.0530345   -1.0319764  0.072972899   -2.0530345    1.0210581  1706409 
  298000     1.006369   -2.0536328   -2.0536328   -1.0315551  0.067693149   -2.0536328    1.0220777  1706382 
  299000    1.0053224   -2.0522672   -2.0522672   -1.0312363  0.072878171   -2.0522672     1.021031  1706355 
  300000    1.0055277   -2.0523259   -2.0523259   -1.0310703  0.067578263   -2.0523259    1.0212556  1706328 
  301000    1.0062837   -2.0531284   -2.0531284   -1.0310887   0.07078015   -2.0531284    1.0220397  1706301 
  302000    1.0072897   -2.0543083   -2.0543083   -1.0312307  0.070004248   -2.0543083    1.0230776  1706274 
  303000    1.0070083   -2.0538796   -2.0538796   -1.0310717  0.073441079   -2.0538796    1.0228079  1706247 
  304000    1.0059336   -2.0530636   -2.0530636   -1.0313311  0.071281295   -2.0530636    1.0217326  1706220 
  305000    1.0063919   -2.0534159   -2.0534159   -1.0312017  0.070508753   -2.0534159    1.0222142  1706193 
  306000    1.0057042   -2.0527564   -2.0527564   -1.0312245  0.074670564   -2.0527564    1.0215319  1706166 
  307000     1.005422   -2.0525162   -2.0525162   -1.0312548  0.073945174   -2.0525162    1.0212614  1706139 
  308000    1.0051908   -2.0520213   -2.0520213   -1.0309786  0.074986352   -2.0520213    1.0210427  1706112 
  309000    1.0056889   -2.0527992   -2.0527992   -1.0312343  0.070368694   -2.0527992    1.0215648  1706085 
  310000    1.0065431   -2.0534754   -2.0534754   -1.0310267  0.071592237   -2.0534754    1.0224487  1706058 
  311000    1.0067381   -2.0536063   -2.0536063   -1.0309432  0.068652938   -2.0536063     1.022663  1706031 
  312000    1.0062032   -2.0531248   -2.0531248    -1.030989  0.072947951   -2.0531248    1.0221358  1706004 
  313000    1.0063812   -2.0530727   -2.0530727   -1.0307399  0.068666845   -2.0530727    1.0223328  1705977 
  314000    1.0060597   -2.0523837   -2.0523837   -1.0303613   0.07374489   -2.0523837    1.0220224  1705950 
  315000    1.0069859   -2.0529989   -2.0529989   -1.0300195  0.074150619   -2.0529989    1.0229794  1705923 
  316000    1.0060795   -2.0521371   -2.0521371   -1.0300622  0.076125726   -2.0521371    1.0220749  1705896 
  317000    1.0069722   -2.0530602   -2.0530602   -1.0300623  0.072470833   -2.0530602    1.0229979  1705869 
  318000    1.0055149   -2.0515633   -2.0515633   -1.0300297  0.075496375   -2.0515633    1.0215336  1705842 
  319000    1.0068709    -2.052495    -2.052495   -1.0295677  0.073950423    -2.052495    1.0229274  1705815 
  320000    1.0065174   -2.0520985   -2.0520985   -1.0295141  0.069914703   -2.0520985    1.0225844  1705788 
  321000    1.0056929   -2.0522383   -2.0522383   -1.0304754  0.073158887   -2.0522383    1.0217629  1705761 
  322000    1.0061085   -2.0530361   -2.0530361   -1.0308346  0.067439201   -2.0530361    1.0222014  1705734 
  323000    1.0050368   -2.0516029   -2.0516029   -1.0304742  0.072747006   -2.0516029    1.0211287  1705707 
  324000    1.0054241   -2.0519218   -2.0519218   -1.0303834  0.073556681   -2.0519218    1.0215383  1705680 
  325000    1.0052518    -2.051984    -2.051984   -1.0306045  0.067945942    -2.051984    1.0213795  1705653 
  326000    1.0062973   -2.0527635   -2.0527635   -1.0303056  0.073173237   -2.0527635    1.0224579  1705626 
  327000    1.0060019   -2.0525784   -2.0525784   -1.0304045  0.071122498   -2.0525784    1.0221739  1705599 
  328000    1.0059767   -2.0529098   -2.0529098   -1.0307452  0.073229399   -2.0529098    1.0221645  1705572 
  329000    1.0055165    -2.052592    -2.052592   -1.0308789  0.069483942    -2.052592    1.0217131  1705545 
  330000     1.005093   -2.0523975   -2.0523975   -1.0310986  0.074079539   -2.0523975    1.0212989  1705518 
  331000    1.0052118   -2.0522216   -2.0522216   -1.0307857  0.067928929   -2.0522216    1.0214359  1705491 
  332000    1.0055527   -2.0522711   -2.0522711   -1.0304726  0.070377701   -2.0522711    1.0217985  1705464 
  333000    1.0051718   -2.0519282   -2.0519282   -1.0305001  0.072794702   -2.0519282    1.0214281  1705436 
  334000    1.0055728   -2.0521502   -2.0521502   -1.0302984  0.071281963   -2.0521502    1.0218518  1705409 
  335000    1.0047865    -2.051065    -2.051065   -1.0299961  0.073519074    -2.051065    1.0210689  1705382 
  336000    1.0048215    -2.051115    -2.051115   -1.0299944  0.072804215    -2.051115    1.0211207  1705355 
  337000    1.0043485   -2.0507485   -2.0507485   -1.0300924  0.069663113   -2.0507485    1.0206561  1705328 
  338000     1.004841   -2.0510192   -2.0510192   -1.0298464  0.067357125   -2.0510192    1.0211728  1705301 
  339000    1.0035763   -2.0497527   -2.0497527    -1.029849  0.070002985   -2.0497527    1.0199037  1705274 
  340000    1.0050553    -2.050862    -2.050862    -1.029439  0.067790134    -2.050862     1.021423  1705247 
  341000    1.0047534   -2.0501544   -2.0501544   -1.0290221  0.072159786   -2.0501544    1.0211323  1705220 
  342000    1.0045836   -2.0505085   -2.0505085   -1.0295326  0.067273121   -2.0505085    1.0209759  1705193 
  343000     1.005313   -2.0505978   -2.0505978   -1.0288644  0.072262474   -2.0505978    1.0217334  1705166 
  344000    1.0045904   -2.0502077   -2.0502077   -1.0291925   0.06708812   -2.0502077    1.0210151  1705139 
  345000    1.0052514   -2.0508865   -2.0508865   -1.0291834  0.071982496   -2.0508865    1.0217031  1705112 
  346000    1.0039099   -2.0497028   -2.0497028    -1.029347  0.073077143   -2.0497028    1.0203558  1705085 
  347000    1.0051756   -2.0508645   -2.0508645    -1.029206  0.072273359   -2.0508645    1.0216585  1705058 
  348000    1.0049217   -2.0506817   -2.0506817   -1.0292651   0.07097497   -2.0506817    1.0214166  1705031 
  349000    1.0044271   -2.0499644   -2.0499644   -1.0290345  0.071463549   -2.0499644      1.02093  1705004 
  350000    1.0052001    -2.051033    -2.051033   -1.0293011  0.070810452    -2.051033    1.0217319  1704977 
  351000    1.0056636   -2.0510948   -2.0510948   -1.0288756  0.068972495   -2.0510948    1.0222192  1704950 
  352000    1.0048719   -2.0503683   -2.0503683   -1.0289377  0.071056831   -2.0503683    1.0214307  1704923 
  353000    1.0050215   -2.0504901   -2.0504901   -1.0288912  0.075166142   -2.0504901    1.0215989  1704896 
  354000    1.0047794   -2.0504366   -2.0504366   -1.0290677  0.075049626   -2.0504366    1.0213689  1704869 
  355000    1.0057054   -2.0509053   -2.0509053   -1.0285789  0.072336028   -2.0509053    1.0223264  1704842 
  356000    1.0056871   -2.0505212   -2.0505212   -1.0281972  0.073996194   -2.0505212    1.0223241  1704815 
  357000     1.005798   -2.0503864   -2.0503864   -1.0279334  0.070703303   -2.0503864     1.022453  1704788 
  358000    1.0052538   -2.0499067   -2.0499067   -1.0279909  0.073494253   -2.0499067    1.0219159  1704761 
  359000    1.0040011    -2.048417    -2.048417   -1.0277583  0.069991451    -2.048417    1.0206587  1704734 
  360000    1.0047617   -2.0492442   -2.0492442   -1.0277962  0.070362099   -2.0492442     1.021448  1704707 
  361000    1.0051506   -2.0499511   -2.0499511   -1.0280915  0.070811902   -2.0499511    1.0218596  1704680 
  362000    1.0050867   -2.0496215   -2.0496215   -1.0278107  0.071818695   -2.0496215    1.0218108  1704653 
  363000    1.0047409   -2.0492428   -2.0492428   -1.0277673  0.076002058   -2.0492428    1.0214754  1704626 
  364000    1.0045193   -2.0492414   -2.0492414    -1.027975  0.074447654   -2.0492414    1.0212663  1704599 
  365000    1.0058656   -2.0509907   -2.0509907   -1.0283395  0.072916558   -2.0509907    1.0226513  1704572 
  366000    1.0039813   -2.0488988   -2.0488988    -1.028147  0.073236843   -2.0488988    1.0207517  1704545 
  367000    1.0045461   -2.0494832   -2.0494832   -1.0281411  0.068931945   -2.0494832    1.0213421  1704518 
  368000    1.0050405   -2.0506278   -2.0506278   -1.0287669  0.068165138   -2.0506278     1.021861  1704491 
  369000    1.0039783   -2.0497169   -2.0497169   -1.0289198  0.074420238   -2.0497169    1.0207971  1704464 
  370000    1.0046495     -2.05029     -2.05029   -1.0287936  0.072287226     -2.05029    1.0214963  1704436 
  371000    1.0050324   -2.0503484   -2.0503484   -1.0284466  0.073965549   -2.0503484    1.0219019  1704409 
  372000    1.0058053   -2.0513182   -2.0513182   -1.0286143  0.074389686   -2.0513182     1.022704  1704382 
  373000     1.004383   -2.0500234   -2.0500234   -1.0287496  0.071770537   -2.0500234    1.0212739  1704355 
  374000    1.0054608   -2.0510686   -2.0510686   -1.0286826  0.069798646   -2.0510686     1.022386  1704328 
  375000    1.0049097   -2.0504379   -2.0504379    -1.028596  0.072347082   -2.0504379    1.0218418  1704301 
  376000    1.0048602   -2.0504758   -2.0504758   -1.0286681  0.072296441   -2.0504758    1.0218077  1704274 
  377000    1.0054021   -2.0504991   -2.0504991   -1.0281242  0.070964151   -2.0504991    1.0223749  1704247 
  378000    1.0055103   -2.0505943   -2.0505943   -1.0280931  0.071025711   -2.0505943    1.0225012  1704220 
  379000    1.0046513   -2.0493759   -2.0493759    -1.027732  0.073681648   -2.0493759    1.0216439  1704193 
  380000    1.0046933   -2.0497112   -2.0497112   -1.0280084  0.072035503   -2.0497112    1.0217028  1704166 
  381000    1.0045514   -2.0499552   -2.0499552   -1.0283806  0.072308945   -2.0499552    1.0215746  1704139 
  382000    1.0040648   -2.0490399   -2.0490399    -1.027944  0.068725146   -2.0490399     1.021096  1704112 
  383000    1.0041137   -2.0494604   -2.0494604   -1.0282986  0.068410972   -2.0494604    1.0211618  1704085 
  384000    1.0038232   -2.0491414   -2.0491414   -1.0282588  0.072902072   -2.0491414    1.0208826  1704058 
  385000    1.0043025   -2.0492599   -2.0492599   -1.0278736   0.07066279   -2.0492599    1.0213863  1704031 
  386000    1.0044295   -2.0494784   -2.0494784   -1.0279468  0.067687437   -2.0494784    1.0215316  1704004 
  387000    1.0045783   -2.0496408   -2.0496408   -1.0279416  0.069902483   -2.0496408    1.0216991  1703977 
  388000    1.0041619   -2.0489562   -2.0489562   -1.0276644  0.069523547   -2.0489562    1.0212917  1703950 
  389000      1.00506   -2.0500334   -2.0500334    -1.027812  0.069372208   -2.0500334    1.0222214  1703923 
  390000    1.0043466   -2.0495814   -2.0495814   -1.0280694  0.070042715   -2.0495814     1.021512  1703896 
  391000     1.004566    -2.050219    -2.050219   -1.0284677  0.071883325    -2.050219    1.0217513  1703869 
  392000    1.0042008   -2.0495422   -2.0495422    -1.028146   0.07095636   -2.0495422    1.0213961  1703842 
  393000    1.0032968   -2.0485916   -2.0485916   -1.0280988  0.071550591   -2.0485916    1.0204927  1703815 
  394000    1.0033815   -2.0488032   -2.0488032    -1.028208  0.074220732   -2.0488032    1.0205951  1703788 
  395000    1.0042139   -2.0496189   -2.0496189   -1.0281609  0.068200758   -2.0496189     1.021458  1703761 
  396000    1.0040032   -2.0495074   -2.0495074   -1.0282475  0.070419867   -2.0495074    1.0212599  1703734 
  397000    1.0049702   -2.0497555   -2.0497555   -1.0274959  0.074751625   -2.0497555    1.0222596  1703707 
  398000     1.003479   -2.0486938   -2.0486938   -1.0279349  0.069858859   -2.0486938     1.020759  1703680 
  399000    1.0043624   -2.0491907   -2.0491907   -1.0275169  0.070633714   -2.0491907    1.0216738  1703653 
  400000    1.0041789   -2.0489007   -2.0489007   -1.0273974  0.069616628   -2.0489007    1.0215033  1703626 
  401000    1.0044411    -2.049292    -2.049292   -1.0275058  0.069614247    -2.049292    1.0217862  1703599 
  402000    1.0045453   -2.0493318   -2.0493318   -1.0274233   0.07166182   -2.0493318    1.0219084  1703572 
  403000    1.0040192   -2.0484774   -2.0484774    -1.027088  0.071948637   -2.0484774    1.0213894  1703545 
  404000    1.0042328   -2.0484156   -2.0484156   -1.0267927  0.073671508   -2.0484156    1.0216229  1703518 
  405000    1.0037782   -2.0482192   -2.0482192   -1.0270426   0.07235138   -2.0482192    1.0211766  1703491 
  406000    1.0034112   -2.0478215   -2.0478215   -1.0270021  0.071919032   -2.0478215    1.0208194  1703464 
  407000    1.0036564   -2.0478124   -2.0478124   -1.0267267  0.067174457   -2.0478124    1.0210857  1703436 
  408000    1.0041267   -2.0484022   -2.0484022   -1.0268219  0.074507096   -2.0484022    1.0215803  1703409 
  409000    1.0042099   -2.0481638   -2.0481638   -1.0264826  0.073638422   -2.0481638    1.0216811  1703382 
  410000    1.0049202   -2.0492988   -2.0492988   -1.0268788  0.072201741   -2.0492988      1.02242  1703355 
  411000    1.0038193   -2.0484701   -2.0484701   -1.0271539  0.071945887   -2.0484701    1.0213161  1703328 
  412000    1.0038983   -2.0485358   -2.0485358    -1.027123   0.07586473   -2.0485358    1.0214128  1703301 
  413000    1.0043882   -2.0489219   -2.0489219   -1.0269946  0.070130461   -2.0489219    1.0219274  1703274 
  414000    1.0043868   -2.0484126   -2.0484126   -1.0264704  0.072243336   -2.0484126    1.0219422  1703247 
  415000    1.0055645   -2.0496319   -2.0496319   -1.0264753  0.073625925   -2.0496319    1.0231566  1703220 
  416000    1.0048713   -2.0488015   -2.0488015    -1.026334  0.075445306   -2.0488015    1.0224676  1703193 
  417000      1.00461   -2.0487378   -2.0487378     -1.02652  0.074367777   -2.0487378    1.0222178  1703166 
  418000    1.0041638   -2.0483663   -2.0483663   -1.0265863  0.074229133   -2.0483663      1.02178  1703139 
  419000    1.0044425   -2.0488714   -2.0488714   -1.0267915  0.072416418   -2.0488714    1.0220799  1703112 
  420000    1.0045506   -2.0487721   -2.0487721    -1.026566  0.068206734   -2.0487721    1.0222061  1703085 
  421000    1.0035411   -2.0480112   -2.0480112   -1.0268162  0.076475026   -2.0480112    1.0211949  1703058 
  422000    1.0039192   -2.0483229   -2.0483229   -1.0267269  0.071080354   -2.0483229     1.021596  1703031 
  423000    1.0032706   -2.0475209   -2.0475209   -1.0265688  0.071270626   -2.0475209    1.0209521  1703004 
  424000    1.0034998   -2.0474583   -2.0474583   -1.0262568  0.071016808   -2.0474583    1.0212015  1702977 
  425000    1.0034195    -2.047541    -2.047541    -1.026405  0.072814353    -2.047541     1.021136  1702950 
  426000    1.0035546   -2.0480488   -2.0480488    -1.026759  0.069689142   -2.0480488    1.0212897  1702923 
  427000    1.0041439   -2.0484654   -2.0484654   -1.0265598  0.073016963   -2.0484654    1.0219056  1702896 
  428000    1.0031691   -2.0471994   -2.0471994   -1.0262696  0.072157686   -2.0471994    1.0209298  1702869 
  429000    1.0035477   -2.0483016   -2.0483016   -1.0269704  0.066997651   -2.0483016    1.0213312  1702842 
  430000    1.0020365   -2.0469194   -2.0469194     -1.02711  0.070075686   -2.0469194    1.0198094  1702815 
  431000    1.0029357   -2.0478965   -2.0478965   -1.0271557  0.078376257   -2.0478965    1.0207408  1702788 
  432000    1.0028576   -2.0477494   -2.0477494   -1.0270719  0.070318293   -2.0477494    1.0206775  1702761 
  433000    1.0039663   -2.0487449   -2.0487449   -1.0269228   0.07034317   -2.0487449     1.021822  1702734 
  434000    1.0026342   -2.0469963   -2.0469963   -1.0265138  0.072008995   -2.0469963    1.0204825  1702707 
  435000    1.0029291    -2.047144    -2.047144   -1.0263453  0.071255738    -2.047144    1.0207988  1702680 
  436000     1.002766   -2.0476317   -2.0476317   -1.0269828  0.066760463   -2.0476317    1.0206489  1702653 
  437000    1.0025928   -2.0466554   -2.0466554   -1.0261666  0.069190987   -2.0466554    1.0204888  1702626 
  438000    1.0030027   -2.0468416   -2.0468416   -1.0259193   0.07726151   -2.0468416    1.0209223  1702599 
  439000    1.0024483   -2.0466054   -2.0466054   -1.0262313  0.070531272   -2.0466054    1.0203741  1702572 
  440000    1.0028907   -2.0465517   -2.0465517   -1.0257111  0.073538579   -2.0465517    1.0208406  1702545 
  441000    1.0031454   -2.0470314   -2.0470314   -1.0259153   0.07190546   -2.0470314    1.0211161  1702518 
  442000    1.0024144   -2.0464738   -2.0464738   -1.0260857  0.069649746   -2.0464738    1.0203881  1702491 
  443000     1.003157   -2.0474787   -2.0474787   -1.0263184  0.068766558   -2.0474787    1.0211603  1702464 
  444000    1.0025197   -2.0469137   -2.0469137   -1.0263853  0.073835162   -2.0469137    1.0205283  1702436 
  445000    1.0027387    -2.047067    -2.047067   -1.0262995   0.07170674    -2.047067    1.0207675  1702409 
  446000    1.0032471   -2.0470738   -2.0470738   -1.0257725  0.069772438   -2.0470738    1.0213012  1702382 
  447000    1.0036374   -2.0468378   -2.0468378   -1.0251232  0.073887565   -2.0468378    1.0217147  1702355 
  448000    1.0036165    -2.047054    -2.047054   -1.0253444  0.072369607    -2.047054    1.0217096  1702328 
  449000    1.0036102   -2.0462077   -2.0462077   -1.0244882  0.071472521   -2.0462077    1.0217195  1702301 
  450000    1.0031003   -2.0454988   -2.0454988   -1.0242822  0.070953963   -2.0454988    1.0212166  1702274 
  451000    1.0026616   -2.0455479   -2.0455479   -1.0247618  0.073383505   -2.0455479    1.0207861  1702247 
  452000    1.0035522   -2.0462133   -2.0462133   -1.0245042  0.072302817   -2.0462133     1.021709  1702220 
  453000    1.0033229   -2.0457646   -2.0457646   -1.0242728   0.07381365   -2.0457646    1.0214917  1702193 
  454000    1.0033151   -2.0461935   -2.0461935   -1.0246935  0.074463891   -2.0461935       1.0215  1702166 
  455000    1.0046194   -2.0475386   -2.0475386   -1.0246944  0.071947106   -2.0475386    1.0228442  1702139 
  456000    1.0035535   -2.0465287   -2.0465287   -1.0247535  0.073055575   -2.0465287    1.0217752  1702112 
  457000    1.0032739   -2.0461934   -2.0461934   -1.0246867  0.072365243   -2.0461934    1.0215067  1702085 
  458000    1.0029064   -2.0458795   -2.0458795   -1.0247308  0.072353154   -2.0458795    1.0211487  1702058 
  459000     1.002957   -2.0464876   -2.0464876   -1.0252712  0.072723573   -2.0464876    1.0212164  1702031 
  460000    1.0030669   -2.0463702   -2.0463702   -1.0250256  0.073811477   -2.0463702    1.0213446  1702004 
  461000    1.0037258   -2.0474584   -2.0474584   -1.0254267   0.07148676   -2.0474584    1.0220317  1701977 
  462000    1.0026959   -2.0462437   -2.0462437   -1.0252445  0.076113053   -2.0462437    1.0209992  1701950 
  463000    1.0028675    -2.046132    -2.046132   -1.0249419  0.075548149    -2.046132    1.0211902  1701923 
  464000    1.0033266   -2.0463416   -2.0463416   -1.0246678  0.073576987   -2.0463416    1.0216738  1701896 
  465000    1.0033251     -2.04631     -2.04631   -1.0246215   0.07308666     -2.04631    1.0216884  1701869 
  466000    1.0043094   -2.0471334   -2.0471334   -1.0244264   0.07223818   -2.0471334     1.022707  1701842 
  467000    1.0038142   -2.0467052   -2.0467052   -1.0244862  0.074985328   -2.0467052     1.022219  1701815 
  468000    1.0036061   -2.0468841   -2.0468841   -1.0248608  0.074481749   -2.0468841    1.0220233  1701788 
  469000    1.0038684   -2.0468888   -2.0468888   -1.0245822  0.073036231   -2.0468888    1.0223066  1701761 
  470000    1.0030777   -2.0460633   -2.0460633   -1.0245458   0.06815342   -2.0460633    1.0215176  1701734 
  471000    1.0033574   -2.0462616   -2.0462616    -1.024443  0.074002348   -2.0462616    1.0218186  1701707 
  472000    1.0026637   -2.0458214   -2.0458214   -1.0246931  0.071979279   -2.0458214    1.0211284  1701680 
  473000    1.0021585   -2.0448341   -2.0448341    -1.024204  0.069519078   -2.0448341      1.02063  1701653 
  474000    1.0015256   -2.0445597   -2.0445597    -1.024558   0.07402111   -2.0445597    1.0200017  1701626 
  475000    1.0035327   -2.0465125   -2.0465125   -1.0244504  0.074323633   -2.0465125     1.022062  1701599 
  476000    1.0023253   -2.0453262   -2.0453262   -1.0244777  0.075811431   -2.0453262    1.0208485  1701572 
  477000    1.0026062    -2.045665    -2.045665   -1.0245142  0.073999726    -2.045665    1.0211508  1701545 
  478000    1.0014326   -2.0444262   -2.0444262   -1.0244545  0.073049654   -2.0444262    1.0199717  1701518 
  479000     1.002407   -2.0460724   -2.0460724   -1.0250921  0.070933541   -2.0460724    1.0209803  1701491 
  480000    1.0025038   -2.0453086   -2.0453086   -1.0242135  0.072324122   -2.0453086    1.0210951  1701464 
  481000    1.0033376   -2.0463717   -2.0463717   -1.0244104   0.07242931   -2.0463717    1.0219612  1701436 
  482000    1.0032189   -2.0461641   -2.0461641   -1.0243075   0.07003931   -2.0461641    1.0218566  1701409 
  483000    1.0024707   -2.0450926   -2.0450926   -1.0239819  0.074633833   -2.0450926    1.0211107  1701382 
  484000    1.0022126   -2.0445552   -2.0445552   -1.0236912  0.075984154   -2.0445552     1.020864  1701355 
  485000    1.0030256   -2.0450448   -2.0450448   -1.0233365  0.073316026   -2.0450448    1.0217083  1701328 
  486000     1.002713    -2.044744    -2.044744   -1.0233379  0.069611302    -2.044744     1.021406  1701301 
  487000    1.0014866   -2.0436645   -2.0436645   -1.0234915  0.071704906   -2.0436645     1.020173  1701274 
  488000    1.0025314    -2.044616    -2.044616   -1.0233624  0.071258927    -2.044616    1.0212535  1701247 
  489000    1.0015069   -2.0437722   -2.0437722   -1.0235462  0.069011554   -2.0437722    1.0202261  1701220 
  490000    1.0027066   -2.0447526   -2.0447526   -1.0232882    0.0706276   -2.0447526    1.0214644  1701193 
  491000    1.0015546   -2.0438825   -2.0438825   -1.0235755  0.073330765   -2.0438825     1.020307  1701166 
  492000    1.0008704   -2.0435296   -2.0435296   -1.0239034  0.072156691   -2.0435296    1.0196262  1701139 
  493000    1.0018854   -2.0444372   -2.0444372   -1.0237608  0.070989619   -2.0444372    1.0206765  1701112 
  494000    1.0024827   -2.0445958   -2.0445958   -1.0232947   0.07535963   -2.0445958    1.0213011  1701085 
  495000    1.0021768   -2.0443317   -2.0443317    -1.023326  0.073554212   -2.0443317    1.0210058  1701058 
  496000    1.0007618   -2.0431514   -2.0431514   -1.0235712  0.070415821   -2.0431514    1.0195803  1701031 
  497000    1.0018729   -2.0442429   -2.0442429   -1.0235144  0.073738393   -2.0442429    1.0207285  1701004 
  498000    1.0015926   -2.0442479   -2.0442479   -1.0237887  0.069694452   -2.0442479    1.0204591  1700977 
  499000    1.0019949   -2.0445154   -2.0445154   -1.0236302  0.072566869   -2.0445154    1.0208852  1700950 
  500000    1.0011417     -2.04339     -2.04339    -1.023358  0.070448279     -2.04339    1.0200321  1700923 
  501000    1.0024922   -2.0447227   -2.0447227   -1.0232984  0.071192903   -2.0447227    1.0214243  1700896 
  502000    1.0014492   -2.0438605   -2.0438605   -1.0234827  0.073043437   -2.0438605    1.0203778  1700869 
  503000    1.0028728   -2.0450295   -2.0450295   -1.0231849  0.073642494   -2.0450295    1.0218446  1700842 
  504000    1.0012249   -2.0438079   -2.0438079   -1.0236263   0.07224157   -2.0438079    1.0201817  1700815 
  505000    1.0015082   -2.0439543   -2.0439543   -1.0234677   0.07134085   -2.0439543    1.0204865  1700788 
  506000    1.0015122   -2.0439644   -2.0439644   -1.0234575  0.075268247   -2.0439644    1.0205068  1700761 
  507000    1.0019424   -2.0444263   -2.0444263   -1.0234649  0.072583369   -2.0444263    1.0209613  1700734 
  508000    1.0028427   -2.0450776   -2.0450776   -1.0231827  0.071944094   -2.0450776    1.0218949  1700707 
  509000    1.0011891   -2.0434924   -2.0434924   -1.0232662  0.070312412   -2.0434924    1.0202262  1700680 
  510000    1.0023204   -2.0446093   -2.0446093   -1.0232141  0.069773492   -2.0446093    1.0213952  1700653 
  511000    1.0015837   -2.0440985   -2.0440985   -1.0234379  0.075966865   -2.0440985    1.0206607  1700626 
  512000    1.0012063   -2.0435813   -2.0435813    -1.023289   0.07028147   -2.0435813    1.0202923  1700599 
  513000    1.0015301   -2.0440124   -2.0440124    -1.023374  0.074500443   -2.0440124    1.0206385  1700572 
  514000     1.002037   -2.0448697   -2.0448697   -1.0236984  0.070080126   -2.0448697    1.0211713  1700545 
  515000    1.0006999   -2.0434072   -2.0434072   -1.0235823  0.070832382   -2.0434072    1.0198249  1700518 
  516000    1.0025245   -2.0451635   -2.0451635    -1.023463  0.067688833   -2.0451635    1.0217005  1700491 
  517000    1.0019689   -2.0443612   -2.0443612   -1.0232107  0.074977889   -2.0443612    1.0211505  1700464 
  518000    1.0026273   -2.0452966   -2.0452966   -1.0234582  0.072844049   -2.0452966    1.0218383  1700436 
  519000    1.0018125   -2.0442162   -2.0442162   -1.0231921  0.074668922   -2.0442162    1.0210242  1700409 
  520000    1.0004304   -2.0434588   -2.0434588   -1.0238271  0.073334189   -2.0434588    1.0196317  1700382 
  521000    1.0009592    -2.043499    -2.043499   -1.0233122  0.073228173    -2.043499    1.0201868  1700355 
  522000    1.0013478   -2.0437215   -2.0437215   -1.0231224  0.074060757   -2.0437215    1.0205991  1700328 
  523000     1.001964    -2.044033    -2.044033   -1.0227897  0.070225796    -2.044033    1.0212433  1700301 
  524000    1.0023107   -2.0444937   -2.0444937   -1.0228806  0.075876234   -2.0444937     1.021613  1700274 
  525000    1.0024286   -2.0449973   -2.0449973   -1.0232479  0.071108013   -2.0449973    1.0217494  1700247 
  526000    1.0021042   -2.0446019   -2.0446019    -1.023167  0.075608475   -2.0446019    1.0214349  1700220 
  527000    1.0022642    -2.045351    -2.045351   -1.0237367  0.072344289    -2.045351    1.0216143  1700193 
  528000    1.0016714   -2.0443531   -2.0443531   -1.0233269  0.071476953   -2.0443531    1.0210262  1700166 
  529000    1.0010123   -2.0440424   -2.0440424   -1.0236718  0.072855176   -2.0440424    1.0203706  1700139 
  530000    1.0007108     -2.04392     -2.04392   -1.0238406  0.073614614     -2.04392    1.0200794  1700112 
  531000    1.0010658   -2.0441837   -2.0441837   -1.0237262  0.073115385   -2.0441837    1.0204575  1700085 
  532000    1.0016633   -2.0443405   -2.0443405   -1.0232577  0.076354845   -2.0443405    1.0210828  1700058 
  533000    1.0017436   -2.0448659   -2.0448659    -1.023685  0.071360783   -2.0448659    1.0211809  1700031 
  534000    1.0000945   -2.0433807   -2.0433807   -1.0238647  0.077339641   -2.0433807     1.019516  1700004 
  535000    1.0013827   -2.0448083   -2.0448083   -1.0239628  0.071955102   -2.0448083    1.0208455  1699977 
  536000    1.0010285   -2.0442295   -2.0442295    -1.023729  0.070293152   -2.0442295    1.0205006  1699950 
  537000    1.0008836   -2.0437618   -2.0437618   -1.0233928  0.072867693   -2.0437618    1.0203691  1699923 
  538000    1.0014199   -2.0441459   -2.0441459   -1.0232139  0.073823947   -2.0441459     1.020932  1699896 
  539000     1.001391   -2.0442104   -2.0442104   -1.0232917  0.071653244   -2.0442104    1.0209187  1699869 
  540000    1.0013563   -2.0447163   -2.0447163   -1.0238168  0.076304166   -2.0447163    1.0208995  1699842 
  541000    1.0005948    -2.043772    -2.043772   -1.0236326  0.073330576    -2.043772    1.0201394  1699815 
  542000    1.0011776   -2.0446152   -2.0446152   -1.0238654  0.074104798   -2.0446152    1.0207498  1699788 
  543000    1.0015475   -2.0445601   -2.0445601   -1.0234169  0.074488216   -2.0445601    1.0211432  1699761 
  544000    1.0007321   -2.0437719   -2.0437719   -1.0234439  0.077773121   -2.0437719     1.020328  1699734 
  545000    1.0014571   -2.0447126   -2.0447126   -1.0236291  0.072648374   -2.0447126    1.0210835  1699707 
  546000    1.0010587   -2.0441646   -2.0441646   -1.0234711   0.07253392   -2.0441646    1.0206934  1699680 
  547000    1.0007994   -2.0444091   -2.0444091   -1.0239639  0.071272427   -2.0444091    1.0204453  1699653 
  548000    1.0007721    -2.044039    -2.044039   -1.0236053  0.072595465    -2.044039    1.0204337  1699626 
  549000    1.0002147    -2.043445    -2.043445   -1.0235635  0.074999642    -2.043445    1.0198815  1699599 
  550000    1.0019169   -2.0443817   -2.0443817   -1.0227483  0.074034182   -2.0443817    1.0216334  1699572 
  551000    1.0016411   -2.0437483   -2.0437483   -1.0223799  0.073156999   -2.0437483    1.0213684  1699545 
  552000    1.0007546   -2.0434472   -2.0434472   -1.0229665  0.071283793   -2.0434472    1.0204807  1699518 
  553000    1.0007229   -2.0430228   -2.0430228   -1.0225583  0.072779466   -2.0430228    1.0204645  1699491 
  554000    1.0000279   -2.0423576   -2.0423576   -1.0225856  0.070382997   -2.0423576     1.019772  1699464 
  555000   0.99940785   -2.0423306   -2.0423306   -1.0231741  0.071219918   -2.0423306    1.0191565  1699436 
  556000   0.99891781   -2.0411993   -2.0411993   -1.0225263  0.072969411   -2.0411993     1.018673  1699409 
  557000   0.99966398   -2.0419826   -2.0419826   -1.0225325  0.069671403   -2.0419826    1.0194501  1699382 
  558000    1.0000609   -2.0424981   -2.0424981    -1.022627  0.072873112   -2.0424981    1.0198711  1699355 
  559000   0.99938178   -2.0419073   -2.0419073   -1.0227125  0.073752718   -2.0419073    1.0191947  1699328 
  560000    1.0016316   -2.0438734   -2.0438734    -1.022368  0.073315434   -2.0438734    1.0215053  1699301 
  561000    1.0007447   -2.0426517   -2.0426517   -1.0220346  0.069617004   -2.0426517    1.0206171  1699274 
  562000    1.0013433   -2.0431917   -2.0431917   -1.0219478  0.073348795   -2.0431917    1.0212438  1699247 
  563000     1.000775   -2.0425355   -2.0425355    -1.021855  0.076756626   -2.0425355    1.0206805  1699220 
  564000    1.0010321   -2.0426814   -2.0426814   -1.0217226  0.071352071   -2.0426814    1.0209588  1699193 
  565000    1.0013332   -2.0431417   -2.0431417   -1.0218594  0.072291267   -2.0431417    1.0212822  1699166 
  566000     1.000899   -2.0430016   -2.0430016    -1.022146  0.073211883   -2.0430016    1.0208556  1699139 
  567000    1.0006448    -2.042987    -2.042987   -1.0223744  0.073084164    -2.042987    1.0206125  1699112 
  568000   0.99977983   -2.0415774   -2.0415774   -1.0218309  0.073425611   -2.0415774    1.0197465  1699085 
  569000    1.0001092   -2.0421186   -2.0421186   -1.0220199  0.068025394   -2.0421186    1.0200987  1699058 
  570000   0.99981319   -2.0416661   -2.0416661   -1.0218532  0.068739394   -2.0416661    1.0198129  1699031 
  571000    1.0004574   -2.0425572   -2.0425572    -1.022071  0.071338765   -2.0425572    1.0204862  1699004 
  572000    0.9997834   -2.0415781   -2.0415781   -1.0217632  0.072458425   -2.0415781    1.0198149  1698977 
  573000    1.0004195    -2.041889    -2.041889    -1.021409  0.071045282    -2.041889      1.02048  1698950 
  574000    1.0009676   -2.0423986   -2.0423986   -1.0213433  0.070988558   -2.0423986    1.0210553  1698923 
  575000    1.0007622   -2.0422121   -2.0422121   -1.0213501  0.076791568   -2.0422121     1.020862  1698896 
  576000    1.0002365   -2.0416167   -2.0416167   -1.0212747  0.071824716   -2.0416167    1.0203419  1698869 
  577000    1.0001222   -2.0419983   -2.0419983   -1.0217567  0.072969955   -2.0419983    1.0202416  1698842 
  578000   0.99961712   -2.0414591   -2.0414591   -1.0217165  0.067767512   -2.0414591    1.0197426  1698815 
  579000    0.9988682   -2.0406783   -2.0406783   -1.0216835  0.072184654   -2.0406783    1.0189948  1698788 
  580000   0.99909098   -2.0408452   -2.0408452   -1.0216069  0.069451311   -2.0408452    1.0192382  1698761 
  581000    1.0003366   -2.0419248   -2.0419248   -1.0213996  0.068436701   -2.0419248    1.0205252  1698734 
  582000   0.99968861   -2.0414173   -2.0414173    -1.021537  0.075065877   -2.0414173    1.0198803  1698707 
  583000   0.99937799   -2.0414247   -2.0414247   -1.0218451  0.073562912   -2.0414247    1.0195796  1698680 
  584000   0.99868476   -2.0405305   -2.0405305   -1.0216419  0.073980996   -2.0405305    1.0188886  1698653 
  585000   0.99956865   -2.0413647   -2.0413647   -1.0215581  0.070533604   -2.0413647    1.0198066  1698626 
  586000    1.0000033   -2.0416918   -2.0416918   -1.0214256  0.073871673   -2.0416918    1.0202662  1698599 
  587000   0.99932584   -2.0410237   -2.0410237   -1.0214325  0.069844656   -2.0410237    1.0195913  1698572 
  588000   0.99896499   -2.0400344   -2.0400344   -1.0207951  0.069744437   -2.0400344    1.0192393  1698545 
  589000   0.99954337   -2.0405638   -2.0405638   -1.0207182  0.070123526   -2.0405638    1.0198456  1698518 
  590000   0.99933146   -2.0405205   -2.0405205   -1.0208748   0.07008812   -2.0405205    1.0196456  1698491 
  591000   0.99942081   -2.0402693   -2.0402693   -1.0205163  0.074059448   -2.0402693     1.019753  1698464 
  592000   0.99984455   -2.0405733   -2.0405733   -1.0203711  0.068972026   -2.0405733    1.0202022  1698436 
  593000   0.99898422   -2.0398419   -2.0398419   -1.0205014  0.070300759   -2.0398419    1.0193405  1698409 
  594000   0.99893448   -2.0399724   -2.0399724   -1.0206664  0.075333558   -2.0399724     1.019306  1698382 
  595000   0.99903024   -2.0399143   -2.0399143   -1.0204944  0.071829791   -2.0399143    1.0194199  1698355 
  596000   0.99983214   -2.0404734   -2.0404734    -1.020219  0.070124711   -2.0404734    1.0202544  1698328 
  597000    1.0002962   -2.0409321   -2.0409321    -1.020188  0.072728696   -2.0409321    1.0207441  1698301 
  598000   0.99997491   -2.0408372   -2.0408372   -1.0204047  0.075852415   -2.0408372    1.0204325  1698274 
  599000   0.99924112   -2.0404831   -2.0404831   -1.0207831  0.073320292   -2.0404831    1.0196999  1698247 
  600000    0.9990128   -2.0398365   -2.0398365   -1.0203534  0.077460201   -2.0398365    1.0194831  1698220 
  601000   0.99966895   -2.0406865   -2.0406865   -1.0205176  0.070799262   -2.0406865     1.020169  1698193 
  602000     1.000653   -2.0413701   -2.0413701   -1.0201807  0.071674581   -2.0413701    1.0211894  1698166 
  603000    1.0001731   -2.0407926   -2.0407926   -1.0200767  0.075231878   -2.0407926    1.0207159  1698139 
  604000    1.0002414   -2.0407435   -2.0407435   -1.0199416   0.07392881   -2.0407435    1.0208019  1698112 
  605000   0.99942723   -2.0399201   -2.0399201   -1.0199329  0.072234316   -2.0399201    1.0199871  1698085 
  606000   0.99958887   -2.0396639   -2.0396639   -1.0194955  0.074481897   -2.0396639    1.0201683  1698058 
  607000   0.99921405   -2.0394473   -2.0394473   -1.0196452  0.073267656   -2.0394473     1.019802  1698031 
  608000   0.99983868   -2.0401679   -2.0401679   -1.0197122  0.068878888   -2.0401679    1.0204557  1698004 
  609000    1.0002759   -2.0395772   -2.0395772    -1.018659  0.071375094   -2.0395772    1.0209182  1697977 
  610000    1.0008932     -2.04022     -2.04022   -1.0186555  0.072096875     -2.04022    1.0215644  1697950 
  611000    1.0012785   -2.0406335   -2.0406335   -1.0186595  0.072298407   -2.0406335     1.021974  1697923 
  612000   0.99989088   -2.0399003   -2.0399003   -1.0193264  0.070582614   -2.0399003    1.0205739  1697896 
  613000   0.99930928   -2.0390733   -2.0390733   -1.0190768   0.07186302   -2.0390733    1.0199965  1697869 
  614000   0.99905523   -2.0386848   -2.0386848   -1.0189313  0.072832151   -2.0386848    1.0197534  1697842 
  615000   0.99927862   -2.0392524   -2.0392524   -1.0192548  0.073779255   -2.0392524    1.0199977  1697815 
  616000   0.99867215   -2.0391041   -2.0391041   -1.0197092  0.070526321   -2.0391041    1.0193948  1697788 
  617000   0.99805799   -2.0383241   -2.0383241   -1.0195399  0.072356244   -2.0383241    1.0187841  1697761 
  618000   0.99919531    -2.038973    -2.038973   -1.0190118  0.073211569    -2.038973    1.0199613  1697734 
  619000   0.99969169   -2.0399236   -2.0399236   -1.0194394  0.069327956   -2.0399236    1.0204842  1697707 
  620000   0.99852752   -2.0386824   -2.0386824   -1.0193704  0.073810946   -2.0386824     1.019312  1697680 
  621000   0.99920311   -2.0394003   -2.0394003   -1.0193824  0.071295422   -2.0394003    1.0200179  1697653 
  622000    1.0010642   -2.0409637   -2.0409637   -1.0190296  0.071643494   -2.0409637    1.0219341  1697626 
  623000   0.99925865   -2.0392728   -2.0392728   -1.0191658  0.070304386   -2.0392728    1.0201071  1697599 
  624000   0.99940858   -2.0391479   -2.0391479   -1.0188716  0.070479066   -2.0391479    1.0202763  1697572 
  625000   0.99835033   -2.0379032   -2.0379032    -1.018691  0.072619414   -2.0379032    1.0192122  1697545 
  626000   0.99871219   -2.0381099   -2.0381099    -1.018512  0.070427833   -2.0381099    1.0195979  1697518 
  627000   0.99905461    -2.038608    -2.038608   -1.0186444  0.069196495    -2.038608    1.0199637  1697491 
  628000   0.99854651   -2.0381607   -2.0381607   -1.0186996  0.073262151   -2.0381607    1.0194611  1697464 
  629000   0.99847039   -2.0386712   -2.0386712    -1.019271   0.07216474   -2.0386712    1.0194002  1697436 
  630000   0.99880535   -2.0386298   -2.0386298   -1.0188713  0.075935416   -2.0386298    1.0197584  1697409 
  631000   0.99950478   -2.0391203   -2.0391203   -1.0186315  0.070389685   -2.0391203    1.0204888  1697382 
  632000   0.99938656   -2.0389403   -2.0389403    -1.018556  0.073474578   -2.0389403    1.0203843  1697355 
  633000   0.99928724   -2.0390436   -2.0390436   -1.0187445  0.073350213   -2.0390436    1.0202991  1697328 
  634000    0.9997454   -2.0390083   -2.0390083   -1.0182252  0.072883777   -2.0390083    1.0207832  1697301 
  635000   0.99959204   -2.0390339   -2.0390339   -1.0183911   0.07342796   -2.0390339    1.0206428  1697274 
  636000    1.0004222   -2.0394728   -2.0394728   -1.0179662  0.074334781   -2.0394728    1.0215067  1697247 
  637000   0.99914383   -2.0381094   -2.0381094   -1.0178918  0.074326023   -2.0381094    1.0202176  1697220 
  638000   0.99937446   -2.0385121   -2.0385121   -1.0180427  0.073237373   -2.0385121    1.0204693  1697193 
  639000   0.99965016   -2.0385505   -2.0385505   -1.0177834  0.074091751   -2.0385505    1.0207671  1697166 
  640000   0.99914538   -2.0378174   -2.0378174   -1.0175495  0.070921952   -2.0378174    1.0202679  1697139 
  641000   0.99958704   -2.0385863   -2.0385863   -1.0178512  0.071157693   -2.0385863    1.0207351  1697112 
  642000   0.99889725   -2.0378564   -2.0378564   -1.0178094  0.073591431   -2.0378564     1.020047  1697085 
  643000     0.998377    -2.037799    -2.037799   -1.0182671  0.073067304    -2.037799    1.0195319  1697058 
  644000   0.99842276   -2.0377431   -2.0377431   -1.0181483  0.071254015   -2.0377431    1.0195949  1697031 
  645000     0.998265   -2.0373459   -2.0373459   -1.0178959  0.070670736   -2.0373459      1.01945  1697004 
  646000   0.99917645   -2.0383056   -2.0383056   -1.0179086  0.072263629   -2.0383056     1.020397  1696977 
  647000   0.99853973   -2.0376825   -2.0376825   -1.0179195  0.069295057   -2.0376825     1.019763  1696950 
  648000   0.99953169   -2.0387613   -2.0387613    -1.017969  0.071094129   -2.0387613    1.0207923  1696923 
  649000   0.99838745    -2.037809    -2.037809    -1.018169  0.074056727    -2.037809    1.0196399  1696896 
  650000   0.99858736   -2.0382057   -2.0382057   -1.0183454  0.070792914   -2.0382057    1.0198603  1696869 
  651000   0.99866679   -2.0377928   -2.0377928   -1.0178351  0.073507659   -2.0377928    1.0199577  1696842 
  652000   0.99805473   -2.0377698   -2.0377698    -1.018421  0.070550365   -2.0377698    1.0193488  1696815 
  653000    0.9993039   -2.0388398   -2.0388398   -1.0181989  0.069004635   -2.0388398    1.0206408  1696788 
  654000    0.9978615    -2.037499    -2.037499   -1.0183151  0.071014707    -2.037499    1.0191839  1696761 
  655000   0.99875214   -2.0389413   -2.0389413   -1.0188316  0.071907735   -2.0389413    1.0201098  1696734 
[...]
29832000   0.31818007    -0.690958    -0.690958 -0.083787469  0.061592287    -0.690958   0.60717053   908166 
29833000   0.31736548  -0.69057364  -0.69057364 -0.084939559  0.062063672  -0.69057364   0.60563408   908139 
29834000   0.31720672  -0.69020248  -0.69020248 -0.084853365  0.059580198  -0.69020248   0.60534912   908112 
29835000   0.31744708  -0.69050325  -0.69050325 -0.084677422  0.061011445  -0.69050325   0.60582583   908085 
29836000   0.31818132  -0.69058663  -0.69058663 -0.083341507  0.062042718  -0.69058663   0.60724512   908058 
29837000   0.31755416   -0.6901068   -0.6901068 -0.084040576  0.060686737   -0.6901068   0.60606622   908031 
29838000   0.31744657  -0.68958732  -0.68958732 -0.083708433  0.059458328  -0.68958732   0.60587889   908004 
29839000    0.3178927  -0.69037483  -0.69037483 -0.083626405  0.061285829  -0.69037483   0.60674842   907977 
29840000   0.31756565  -0.69030333  -0.69030333 -0.084161105  0.061725469  -0.69030333   0.60614223   907950 
29841000   0.31741347  -0.68933527  -0.68933527 -0.083465505  0.062138817  -0.68933527   0.60586977   907923 
29842000   0.31776977  -0.69010893  -0.69010893 -0.083541026  0.058129193  -0.69010893   0.60656791   907896 
29843000   0.31782589  -0.68886753  -0.68886753 -0.082174455  0.059921057  -0.68886753   0.60669308   907869 
29844000   0.31722445  -0.68922585  -0.68922585 -0.083662857  0.060657364  -0.68922585   0.60556299   907842 
29845000   0.31727714  -0.68848083  -0.68848083 -0.082799239  0.058824783  -0.68848083   0.60568159   907815 
29846000   0.31720054  -0.68983188  -0.68983188 -0.084278497  0.060268168  -0.68983188   0.60555338   907788 
29847000   0.31789743  -0.69052916  -0.69052916 -0.083627337  0.061136569  -0.69052916   0.60690183   907761 
29848000   0.31816161  -0.69113484  -0.69113484  -0.08371061   0.06077065  -0.69113484   0.60742423   907734 
29849000   0.31792917  -0.69089166  -0.69089166 -0.083893133  0.061271725  -0.69089166   0.60699852   907707 
29850000   0.31715073  -0.69077536  -0.69077536 -0.085245039  0.060335804  -0.69077536   0.60553032   907680 
29851000   0.31658353  -0.69039666  -0.69039666 -0.085931293  0.059082329  -0.69039666   0.60446537   907653 
29852000   0.31761165  -0.69301723  -0.69301723 -0.086570799  0.060393509  -0.69301723   0.60644643   907626 
29853000   0.31681738  -0.69120319  -0.69120319 -0.086255341  0.062269171  -0.69120319   0.60494785   907599 
29854000    0.3171729  -0.69150004  -0.69150004 -0.085855325  0.059080063  -0.69150004   0.60564472   907572 
29855000   0.31702576  -0.69113326  -0.69113326 -0.085751504  0.060192732  -0.69113326   0.60538175   907545 
29856000   0.31673589  -0.69076004  -0.69076004   -0.0859138  0.058957278  -0.69076004   0.60484624   907518 
29857000   0.31661164  -0.69051007  -0.69051007 -0.085883126  0.060512522  -0.69051007   0.60462695   907491 
29858000   0.31688796  -0.69091029  -0.69091029 -0.085737653  0.059017008  -0.69091029   0.60517264   907464 
29859000   0.31745792  -0.69143576  -0.69143576 -0.085155938  0.060439704  -0.69143576   0.60627982   907436 
29860000   0.31675394    -0.689454    -0.689454 -0.084500643  0.062737593    -0.689454   0.60495335   907409 
29861000   0.31721751  -0.68891858  -0.68891858 -0.083061844  0.061038937  -0.68891858   0.60585674   907382 
29862000   0.31713855  -0.68919336  -0.68919336 -0.083469411  0.061168191  -0.68919336   0.60572395   907355 
29863000   0.31713423  -0.68794914  -0.68794914 -0.082215404  0.058946321  -0.68794914   0.60573373   907328 
29864000   0.31694584  -0.68762275  -0.68762275 -0.082230845  0.061949491  -0.68762275   0.60539191   907301 
29865000   0.31725061  -0.68709092  -0.68709092 -0.081098834  0.059974949  -0.68709092   0.60599208   907274 
29866000   0.31737317  -0.68666974  -0.68666974 -0.080425511  0.062225766  -0.68666974   0.60624423   907247 
29867000   0.31713129  -0.68638986  -0.68638986 -0.080589638  0.060389269  -0.68638986   0.60580022   907220 
29868000   0.31739193  -0.68730652  -0.68730652 -0.080990364   0.06298872  -0.68730652   0.60631616   907193 
29869000   0.31746286  -0.68694526  -0.68694526 -0.080475556  0.060183436  -0.68694526    0.6064697   907166 
29870000   0.31715547  -0.68668817  -0.68668817 -0.080787661  0.062200751  -0.68668817   0.60590051   907139 
29871000   0.31659804  -0.68605057  -0.68605057 -0.081196982  0.059136106  -0.68605057   0.60485359   907112 
29872000   0.31666913  -0.68559559  -0.68559559 -0.080588176  0.061262182  -0.68559559   0.60500742   907085 
29873000   0.31704826  -0.68602548  -0.68602548 -0.080275695  0.062580605  -0.68602548   0.60574979   907058 
29874000   0.31722897  -0.68586335  -0.68586335 -0.079750266  0.059616444  -0.68586335   0.60611309   907031 
29875000    0.3177867  -0.68680716  -0.68680716 -0.079610382  0.057894658  -0.68680716   0.60719678   907004 
29876000   0.31716597  -0.68609509  -0.68609509 -0.080066287  0.061807729  -0.68609509    0.6060288   906977 
29877000   0.31729051  -0.68593315  -0.68593315 -0.079648338  0.061361237  -0.68593315   0.60628482   906950 
29878000    0.3169336  -0.68591301  -0.68591301 -0.080292171  0.060062918  -0.68591301   0.60562084   906923 
29879000   0.31644459  -0.68555034  -0.68555034 -0.080845934  0.061144691  -0.68555034   0.60470441   906896 
29880000     0.316855  -0.68536256  -0.68536256 -0.079855845  0.059942543  -0.68536256   0.60550671   906869 
29881000   0.31658665  -0.68503106  -0.68503106 -0.080019155  0.060004981  -0.68503106    0.6050119   906842 
29882000   0.31708909  -0.68468538  -0.68468538 -0.078695245  0.059977706  -0.68468538   0.60599013   906815 
29883000   0.31672867  -0.68401173  -0.68401173 -0.078692376  0.063451841  -0.68401173   0.60531936   906788 
29884000   0.31695331  -0.68407266  -0.68407266 -0.078305951  0.060657087  -0.68407266   0.60576671   906761 
29885000   0.31705963  -0.68495747  -0.68495747 -0.078969517   0.05962609  -0.68495747   0.60598796   906734 
29886000   0.31684394  -0.68452356  -0.68452356 -0.078929812  0.062647832  -0.68452356   0.60559375   906707 
29887000   0.31724501  -0.68565187  -0.68565187 -0.079273486   0.06165535  -0.68565187   0.60637839   906680 
29888000    0.3170096   -0.6852662   -0.6852662  -0.07931974  0.060762277   -0.6852662   0.60594646   906653 
29889000   0.31638594  -0.68474741  -0.68474741 -0.079975019  0.061962488  -0.68474741   0.60477239   906626 
29890000   0.31629773  -0.68467856  -0.68467856 -0.080056791  0.061743676  -0.68467856   0.60462177   906599 
29891000   0.31618961  -0.68415144  -0.68415144 -0.079718348  0.059356255  -0.68415144   0.60443309   906572 
29892000   0.31585246  -0.68375637  -0.68375637 -0.079949791   0.06142698  -0.68375637   0.60380658   906545 
29893000   0.31565544  -0.68385797  -0.68385797 -0.080410054  0.061996997  -0.68385797   0.60344792   906518 
29894000   0.31594757  -0.68372806  -0.68372806 -0.079703665  0.059619403  -0.68372806   0.60402439   906491 
29895000   0.31633598  -0.68511518  -0.68511518 -0.080330231  0.059453876  -0.68511518   0.60478495   906464 
29896000   0.31603825  -0.68527482  -0.68527482 -0.081040419   0.05995341  -0.68527482    0.6042344   906436 
29897000   0.31652934  -0.68590928  -0.68590928 -0.080717931  0.061156044  -0.68590928   0.60519135   906409 
29898000   0.31653409  -0.68548221  -0.68548221 -0.080263754  0.058957809  -0.68548221   0.60521846   906382 
29899000   0.31575768  -0.68382094  -0.68382094 -0.080069007  0.061959627  -0.68382094   0.60375193   906355 
29900000   0.31627958  -0.68497096  -0.68497096 -0.080203104   0.06022172  -0.68497096   0.60476785   906328 
29901000   0.31588174  -0.68312018  -0.68312018 -0.079095051  0.060522583  -0.68312018   0.60402513   906301 
29902000   0.31644597  -0.68324523  -0.68324523 -0.078123156  0.060498446  -0.68324523   0.60512208   906274 
29903000   0.31627545  -0.68268987  -0.68268987 -0.077875848   0.06323143  -0.68268987   0.60481402   906247 
29904000   0.31630807  -0.68265588  -0.68265588 -0.077761455  0.059763726  -0.68265588   0.60489442   906220 
29905000   0.31627547  -0.68266002  -0.68266002 -0.077809912  0.060524467  -0.68266002    0.6048501   906193 
29906000   0.31617313  -0.68248977  -0.68248977 -0.077817372  0.060135721  -0.68248977    0.6046724   906166 
29907000   0.31617824  -0.68299856  -0.68299856  -0.07829836  0.059508789  -0.68299856    0.6047002   906139 
29908000   0.31653031  -0.68374552  -0.68374552 -0.078353949  0.061029412  -0.68374552   0.60539158   906112 
29909000   0.31635145    -0.683069    -0.683069 -0.078001486  0.058897328    -0.683069   0.60506751   906085 
29910000   0.31636552  -0.68326575  -0.68326575 -0.078153285  0.059714379  -0.68326575   0.60511246   906058 
29911000   0.31600864  -0.68245921  -0.68245921 -0.078011336  0.060599569  -0.68245921   0.60444787   906031 
29912000   0.31572218  -0.68253472  -0.68253472 -0.078616783  0.060050716  -0.68253472   0.60391794   906004 
29913000   0.31594903  -0.68334317  -0.68334317 -0.078973294  0.059581953  -0.68334317   0.60436987   905977 
29914000   0.31621369   -0.6828325   -0.6828325 -0.077938347  0.061673454   -0.6828325   0.60489415   905950 
29915000   0.31610268  -0.68237573  -0.68237573 -0.077675901  0.062136539  -0.68237573   0.60469983   905923 
29916000   0.31658213  -0.68436126  -0.68436126 -0.078726208  0.060839016  -0.68436126   0.60563505   905896 
29917000   0.31643803  -0.68502797  -0.68502797 -0.079650547  0.061334077  -0.68502797   0.60537742   905869 
29918000   0.31586057  -0.68454996  -0.68454996 -0.080259251  0.060649077  -0.68454996   0.60429071   905842 
29919000   0.31612482  -0.68490407  -0.68490407 -0.080089789  0.060923607  -0.68490407   0.60481428   905815 
29920000   0.31627778  -0.68487842  -0.68487842 -0.079753461  0.061124788  -0.68487842   0.60512496   905788 
29921000   0.31548689  -0.68472148  -0.68472148 -0.081091713  0.061250692  -0.68472148   0.60362977   905761 
29922000   0.31560845  -0.68410831  -0.68410831 -0.080227953  0.061792858  -0.68410831   0.60388036   905734 
29923000   0.31550572  -0.68432689  -0.68432689 -0.080625097  0.060784222  -0.68432689   0.60370179   905707 
29924000   0.31543683  -0.68438013  -0.68438013 -0.080792158  0.058244734  -0.68438013   0.60358797   905680 
29925000   0.31568591  -0.68425494  -0.68425494 -0.080172352  0.059966379  -0.68425494   0.60408259   905653 
29926000   0.31535212  -0.68323414  -0.68323414 -0.079772287  0.060724149  -0.68323414   0.60346185   905626 
29927000   0.31567815  -0.68413503  -0.68413503 -0.080031274  0.059795767  -0.68413503   0.60410375   905599 
29928000    0.3154285  -0.68334895  -0.68334895 -0.079704947  0.060027639  -0.68334895     0.603644   905572 
29929000   0.31510715  -0.68297288  -0.68297288 -0.079925882   0.06058255  -0.68297288     0.603047   905545 
29930000    0.3156244  -0.68406084  -0.68406084 -0.080005918  0.059924238  -0.68406084   0.60405492   905518 
29931000   0.31538082    -0.684217    -0.684217 -0.080610249  0.060872824    -0.684217   0.60360675   905491 
29932000   0.31550062  -0.68325959  -0.68325959  -0.07940555  0.060549934  -0.68325959   0.60385404   905464 
29933000   0.31517016  -0.68235831  -0.68235831 -0.079118095  0.059445076  -0.68235831   0.60324022   905436 
29934000   0.31473501  -0.68104462  -0.68104462 -0.078619316  0.061502233  -0.68104462    0.6024253   905409 
29935000    0.3153913  -0.68161999  -0.68161999  -0.07792051   0.06168841  -0.68161999   0.60369948   905382 
29936000   0.31586677  -0.68217645  -0.68217645 -0.077548842   0.06075136  -0.68217645   0.60462761   905355 
29937000   0.31538865  -0.68168217  -0.68168217 -0.077951752  0.061072638  -0.68168217   0.60373042   905328 
29938000   0.31584589  -0.68252102  -0.68252102   -0.0778973   0.06308504  -0.68252102   0.60462372   905301 
29939000   0.31554832  -0.68079325  -0.68079325 -0.076721155  0.059980034  -0.68079325   0.60407209   905274 
29940000   0.31512596  -0.67939867  -0.67939867 -0.076117139  0.059424093  -0.67939867   0.60328154   905247 
29941000   0.31506113  -0.67839551  -0.67839551 -0.075220097   0.05928103  -0.67839551   0.60317541   905220 
29942000   0.31575292  -0.67893247  -0.67893247 -0.074414614  0.059889461  -0.67893247   0.60451785   905193 
29943000    0.3152167  -0.67780654  -0.67780654 -0.074297291  0.060887609  -0.67780654   0.60350925   905166 
29944000   0.31562814  -0.67886529  -0.67886529 -0.074550271  0.060916123  -0.67886529   0.60431502   905139 
29945000   0.31538127  -0.67757235  -0.67757235 -0.073711986  0.061346433  -0.67757235   0.60386037   905112 
29946000   0.31548265  -0.67842825  -0.67842825 -0.074355759  0.060892816  -0.67842825   0.60407249   905085 
29947000   0.31551085  -0.67779651  -0.67779651 -0.073652007  0.061487558  -0.67779651   0.60414451   905058 
29948000   0.31536809  -0.67816541  -0.67816541 -0.074276241  0.059696153  -0.67816541   0.60388917   905031 
29949000   0.31538041  -0.67861222  -0.67861222 -0.074681443   0.06103577  -0.67861222   0.60393077   905004 
29950000   0.31512915   -0.6783099   -0.6783099 -0.074842268  0.061373133   -0.6783099   0.60346763   904977 
29951000   0.31469797   -0.6782862   -0.6782862 -0.075626282   0.06139178   -0.6782862   0.60265992   904950 
29952000    0.3154046  -0.67936474  -0.67936474 -0.075333584  0.059376899  -0.67936474   0.60403115   904923 
29953000   0.31512339  -0.67875658  -0.67875658 -0.075245962  0.060292309  -0.67875658   0.60351062   904896 
29954000     0.315404  -0.67907049  -0.67907049 -0.075004421  0.061921765  -0.67907049   0.60406607   904869 
29955000   0.31519819  -0.67885785  -0.67885785 -0.075167952  0.060937847  -0.67885785    0.6036899   904842 
29956000   0.31444534  -0.67737302  -0.67737302 -0.075107063  0.061156249  -0.67737302   0.60226596   904815 
29957000   0.31555552  -0.67781565  -0.67781565 -0.073405299  0.060128991  -0.67781565   0.60441035   904788 
29958000   0.31480083  -0.67555301  -0.67555301 -0.072570174  0.059555975  -0.67555301   0.60298283   904761 
29959000   0.31562507  -0.67696548  -0.67696548 -0.072385825  0.062958799  -0.67696548   0.60457965   904734 
29960000   0.31475451   -0.6759669   -0.6759669 -0.073036819  0.061102765   -0.6759669   0.60293008   904707 
29961000   0.31488171  -0.67705037  -0.67705037 -0.073858622  0.059505929  -0.67705037   0.60319175   904680 
29962000   0.31491928  -0.67685431  -0.67685431 -0.073572584  0.060884087  -0.67685431   0.60328173   904653 
29963000   0.31498493  -0.67661691  -0.67661691 -0.073191421  0.060944063  -0.67661691   0.60342549   904626 
29964000   0.31481168  -0.67646038  -0.67646038 -0.073348784  0.059608202  -0.67646038    0.6031116   904599 
29965000   0.31451732  -0.67570532  -0.67570532 -0.073139666  0.060906507  -0.67570532   0.60256566   904572 
29966000   0.31401856  -0.67537395  -0.67537395 -0.073745888  0.060734003  -0.67537395   0.60162806   904545 
29967000   0.31496692  -0.67616217  -0.67616217 -0.072699138  0.063276713  -0.67616217   0.60346304   904518 
29968000   0.31486099  -0.67647821  -0.67647821 -0.073200124    0.0602365  -0.67647821   0.60327809   904491 
29969000    0.3143288  -0.67527825  -0.67527825 -0.073001857  0.059992977  -0.67527825   0.60227639   904464 
29970000   0.31456588  -0.67498639  -0.67498639 -0.072237079  0.061612335  -0.67498639   0.60274931   904436 
29971000   0.31522575  -0.67636078  -0.67636078 -0.072329032  0.061243827  -0.67636078   0.60403175   904409 
29972000   0.31506482  -0.67593444  -0.67593444 -0.072193061  0.061886312  -0.67593444   0.60374138   904382 
29973000   0.31489474  -0.67482991  -0.67482991 -0.071396419   0.06121996  -0.67482991   0.60343349   904355 
29974000   0.31469431  -0.67387179  -0.67387179 -0.070804375  0.061024648  -0.67387179   0.60306741   904328 
29975000   0.31443782  -0.67344277  -0.67344277 -0.070848884  0.062605595  -0.67344277   0.60259388   904301 
29976000   0.31467233  -0.67396741  -0.67396741 -0.070906096  0.061830995  -0.67396741   0.60306131   904274 
29977000   0.31514627  -0.67415323  -0.67415323  -0.07016561   0.06022193  -0.67415323   0.60398762   904247 
29978000   0.31443795  -0.67374051  -0.67374051 -0.071092392  0.059879841  -0.67374051   0.60264812   904220 
29979000   0.31416408  -0.67345861  -0.67345861 -0.071317411  0.059559785  -0.67345861    0.6021412   904193 
29980000    0.3140461   -0.6738637   -0.6738637 -0.071930667  0.060254531   -0.6738637   0.60193303   904166 
29981000   0.31455233  -0.67520496  -0.67520496 -0.072283616  0.063277747  -0.67520496   0.60292134   904139 
29982000   0.31460415  -0.67593955  -0.67593955 -0.072900874  0.059154809  -0.67593955   0.60303868   904112 
29983000   0.31435975  -0.67511997  -0.67511997 -0.072531771  0.061512258  -0.67511997    0.6025882   904085 
29984000   0.31466905  -0.67607651  -0.67607651 -0.072877401   0.06036037  -0.67607651   0.60319911   904058 
29985000   0.31450539   -0.6761686   -0.6761686 -0.073265233  0.059701683   -0.6761686   0.60290337   904031 
29986000   0.31458069  -0.67581019  -0.67581019  -0.07274445  0.061162819  -0.67581019   0.60306574   904004 
29987000   0.31467054   -0.6759709   -0.6759709 -0.072714897  0.060180857   -0.6759709   0.60325601   903977 
29988000   0.31406621  -0.67397134  -0.67397134 -0.071855911  0.060418797  -0.67397134   0.60211543   903950 
29989000   0.31427665  -0.67488143  -0.67488143 -0.072344557  0.059952764  -0.67488143   0.60253687   903923 
29990000   0.31434374  -0.67570389  -0.67570389 -0.073020393  0.058938318  -0.67570389   0.60268349   903896 
29991000   0.31437758  -0.67418556  -0.67418556 -0.071419181  0.060524917  -0.67418556   0.60276638   903869 
29992000   0.31407781  -0.67401312  -0.67401312   -0.0718035  0.059798478  -0.67401312   0.60220962   903842 
29993000     0.314063  -0.67271638  -0.67271638 -0.070517167  0.061400659  -0.67271638   0.60219921   903815 
29994000   0.31381006  -0.67301476  -0.67301476 -0.071282581  0.060766059  -0.67301476   0.60173217   903788 
29995000   0.31382138  -0.67294877  -0.67294877 -0.071176912  0.061464255  -0.67294877   0.60177186   903761 
29996000   0.31405453  -0.67467229  -0.67467229 -0.072435359  0.062005475  -0.67467229   0.60223693   903734 
29997000   0.31443512  -0.67583726  -0.67583726 -0.072852487  0.061923213  -0.67583726   0.60298477   903707 
29998000    0.3141862  -0.67578657  -0.67578657 -0.073261149  0.060130889  -0.67578657   0.60252542   903680 
29999000    0.3140524  -0.67505405  -0.67505405 -0.072767206  0.061376906  -0.67505405   0.60228684   903653 
30000000   0.31366364  -0.67428749  -0.67428749 -0.072728255  0.060135019  -0.67428749   0.60155924   903626 
Loop time of 58820.3 on 768 procs for 30000000 steps with 903626 atoms

Performance: 220331.917 tau/day, 510.028 timesteps/s
85.6% CPU use with 768 MPI tasks x 1 OpenMP threads

MPI task timing breakdown:
Section |  min time  |  avg time  |  max time  |%varavg|  %CPU | %total
-----------------------------------------------------------------------
Pair    | 1941.8     | 7519.8     | 15441      |4273.8 |  90.1 | 12.78
Bond    | 18.35      | 19.949     | 22.886     |  11.9 | 100.0 |  0.03
Neigh   | 3653.2     | 9601.7     | 14817      |2016.4 |  98.1 | 16.32
Comm    | 12518      | 21322      | 29415      |2663.6 |  83.1 | 36.25
Output  | 2937.5     | 2950.7     | 2983.5     |  23.3 |  75.8 |  5.02
Modify  | 11668      | 16482      | 24174      |1665.9 |  81.8 | 28.02
Other   |            | 924.8      |            |       |       |  1.57

Nlocal:        1176.60 ave        2754 max         267 min
Histogram: 25 65 131 266 172 70 27 6 2 4
Nghost:        3965.90 ave        9966 max         998 min
Histogram: 82 107 141 157 166 88 16 6 4 1
Neighs:        7196.56 ave       37790 max         854 min
Histogram: 524 105 17 15 6 4 2 13 51 31

Total # of neighbors = 5526957
Ave neighs/atom = 6.1164210
Ave special neighs/atom = 0.0000000
Neighbor list builds = 3262701
Dangerous builds = 2422701

Total wall time: 16:20:34
