LAMMPS (29 Oct 2020)
  using 1 OpenMP thread(s) per MPI task
#Read the equilibrated lj fluid and add nanocubes

units           lj
atom_style      full
atom_modify     map array first cubes
dimension       3
boundary        p p f
pair_style      lj/smooth/linear 2.5

variable        sigma           equal 1.0
variable        epsilon         equal 1.0
read_restart	restart.dat.5000000
Reading restart file ...
  restart file = 24 Dec 2020, LAMMPS = 29 Oct 2020
WARNING: Restart file used different # of processors: 192 vs. 64 (src/read_restart.cpp:697)
  restoring atom style full from restart
  orthogonal box = (0.0000000 0.0000000 0.0000000) to (80.000000 80.000000 160.00000)
  2 by 4 by 8 MPI processor grid
  restoring pair style lj/smooth/linear from restart
  439061 atoms
Finding 1-2 1-3 1-4 neighbors ...
  special bond factors lj:    0.0      0.0      0.0     
  special bond factors coul:  0.0      0.0      0.0     
     0 = max # of 1-2 neighbors
     0 = max # of 1-3 neighbors
     0 = max # of 1-4 neighbors
     1 = max # of special neighbors
  special bonds CPU = 1.403 seconds
  read_restart CPU = 1.767 seconds

group		solvent type 1
439061 atoms in group solvent

read_data	data_96.cubes group cubes add append
Reading data file ...
  orthogonal box = (0.0000000 0.0000000 0.0000000) to (80.000000 80.000000 160.00000)
  2 by 4 by 8 MPI processor grid
WARNING: Pair style in data file differs from currently defined pair style (src/read_data.cpp:588)
  reading atoms ...
  109728 atoms
  reading velocities ...
  109728 velocities
Finding 1-2 1-3 1-4 neighbors ...
  special bond factors lj:    0.0      0.0      0.0     
  special bond factors coul:  0.0      0.0      0.0     
     0 = max # of 1-2 neighbors
     0 = max # of 1-3 neighbors
     0 = max # of 1-4 neighbors
     1 = max # of special neighbors
  special bonds CPU = 0.018 seconds
  read_data CPU = 0.389 seconds

group 		hull  type 2
42816 atoms in group hull
group 		dummy type 3
66912 atoms in group dummy

neighbor      0.4 bin
neigh_modify  exclude molecule/intra cubes


pair_modify   shift yes

pair_coeff    1 1 1.0 1.0 #solvent
pair_coeff    2 2 1.0 1.0 1.12 #np
pair_coeff    3 3 0.0 0.0 0.0 #dummy
pair_coeff    2 3 0.0 0.0 0.0 #np dummy
pair_coeff    1 2 ${sol} 1.0  #np solvent
pair_coeff    1 2 .70 1.0  
pair_coeff    1 3 0.0 0.0 2.0 #dummy solvent

# delete solvent where the cubes are
delete_atoms  overlap 1.0 solvent cubes
System init for delete_atoms ...
Neighbor list info ...
  update every 1 steps, delay 10 steps, check yes
  max neighbors/atom: 2000, page size: 100000
  master list distance cutoff = 2.9
  ghost atom cutoff = 2.9
  binsize = 1.45, bins = 56 56 111
  2 neighbor lists, perpetual/occasional/extra = 1 1 0
  (1) command delete_atoms, occasional
      attributes: full, newton on
      pair build: full/bin
      stencil: full/bin/3d
      bin: standard
  (2) pair lj/smooth/linear, perpetual
      attributes: half, newton on
      pair build: half/bin/newton
      stencil: half/bin/3d/newton
      bin: standard
WARNING: Delete_atoms cutoff > minimum neighbor cutoff (src/delete_atoms.cpp:307)
WARNING: Ignoring 'compress yes' for molecular system (src/delete_atoms.cpp:125)
Deleted 87458 atoms, new total = 461331

pair_coeff    1 1 1.0 1.0 #solvent
pair_coeff    2 2 1.0 1.0 1.12 #np
pair_coeff    3 3 0.0 0.0 0.0 #dummy
pair_coeff    2 3 0.0 0.0 0.0 #np dummy
pair_coeff    1 2 ${sol} 1.0  #np solvent
pair_coeff    1 2 .70 1.0  
pair_coeff    1 3 0.0 0.0 0.0 #dummy solvent


comm_modify   mode multi cutoff/multi 1 2.5 cutoff/multi 2 2.5 cutoff/multi 3 6.95

reset_timestep 	0

balance 	1.05 shift z 10 1.05
Balancing ...
Neighbor list info ...
  update every 1 steps, delay 10 steps, check yes
  max neighbors/atom: 2000, page size: 100000
  master list distance cutoff = 2.9
  ghost atom cutoff = 6.95
  binsize = 1.45, bins = 56 56 111
  1 neighbor lists, perpetual/occasional/extra = 1 0 0
  (1) pair lj/smooth/linear, perpetual
      attributes: half, newton on
      pair build: half/bin/newton
      stencil: half/bin/3d/newton
      bin: standard
 rebalancing time: 0.015 seconds
  iteration count = 4
  initial/final maximal load/proc = 11412.000 8639.0000
  initial/final imbalance factor  = 1.5831756 1.1984801
  x cuts: 0.0000000 0.5 1.0000000
  y cuts: 0.0000000 0.25 0.5 0.75 1.0000000
  z cuts: 0.0000000 0.0859375 0.1640625 0.2578125 0.328125 0.421875 0.4921875 0.5703125 1.0000000

####################### WALLS ###########################

variable       epsilonWall equal 2*${epsilon}
variable       epsilonWall equal 2*1
variable       repulsive   equal   0.7147*${sigma}
variable       repulsive   equal   0.7147*1
variable       full	   equal   3*${sigma}
variable       full	   equal   3*1
region         lowWall block EDGE EDGE EDGE EDGE EDGE 2

fix            topWall all wall/lj93 zhi EDGE 	       ${epsilonWall} ${sigma} ${repulsive} units box
fix            topWall all wall/lj93 zhi EDGE 	       2 ${sigma} ${repulsive} units box
fix            topWall all wall/lj93 zhi EDGE 	       2 1 ${repulsive} units box
fix            topWall all wall/lj93 zhi EDGE 	       2 1 0.7147 units box
fix            lowSol solvent wall/lj93 zlo EDGE                ${epsilonWall} ${sigma} ${full} units box
fix            lowSol solvent wall/lj93 zlo EDGE                2 ${sigma} ${full} units box
fix            lowSol solvent wall/lj93 zlo EDGE                2 1 ${full} units box
fix            lowSol solvent wall/lj93 zlo EDGE                2 1 3 units box
fix 	       lowCub cubes wall/lj93 zlo EDGE                ${epsilonWall} ${sigma} ${repulsive} units box
fix 	       lowCub cubes wall/lj93 zlo EDGE                2 ${sigma} ${repulsive} units box
fix 	       lowCub cubes wall/lj93 zlo EDGE                2 1 ${repulsive} units box
fix 	       lowCub cubes wall/lj93 zlo EDGE                2 1 0.7147 units box


###################### COMPUTES ##########################

compute        bin1 solvent chunk/atom bin/1d z lower 1.0 units box
compute        bin3 solvent chunk/atom bin/3d x lower 1.0 y lower 1.0 z lower 1.0 units box

compute 	pe solvent 	   pe/atom
compute 	pe2 all 	   pe/atom

######################  FIXES ############################


fix             peclet solvent ave/chunk 10 10 10000 bin1 density/number norm                  none ave one file density.profile

fix              temp solvent ave/chunk 10 10 10000 bin1 temp norm                  none ave one file temp.profile

fix 		 dens solvent ave/chunk 10 10 500000 bin3 density/number norm 		 none ave one file dens3.profile

fix		 temp2 solvent ave/chunk 10 10 500000 bin3 temp norm none ave one file temp3.profile

fix 		pe solvent ave/chunk 1 1 500000 bin3 c_pe norm none ave one file pe3.profile

fix             1 cubes rigid/nve/small molecule
  create bodies CPU = 0.016 seconds
  96 rigid bodies with 109728 atoms
  6.9282032 = max distance from body owner to body atom

fix             2 solvent nve# temp ${temp} ${temp} 10


## Thermostat
region          regthermo block EDGE EDGE EDGE EDGE 0 15
group           thermo dynamic solvent region regthermo every 1000
dynamic group thermo defined
fix             3 thermo langevin ${temp} ${temp} 10 156453
fix             3 thermo langevin 0.8 ${temp} 10 156453
fix             3 thermo langevin 0.8 0.8 10 156453


#### Load balancing

fix             bal all balance 1000 1.05 shift z 10 1.05

############### Diagnostics and computes ###################

compute        	com cubes          rigid/local   1 mol x y z
compute        	quat cubes         rigid/local   1 mol quatw quati quatj quatk

compute 	cc2 cubes 	   chunk/atom 	 molecule
compute 	msd cubes 	   msd/chunk 	 cc2

fix 		msd all ave/time  1 1 10000 c_msd[*] file dump.msd ave one mode vector


dump            1 all custom 500000 dump.lammpstrj id mol type x y z vx vy vz c_pe2
dump		sol  solvent custom 500000 dump.soltrj id x y z vx vy vz c_pe
dump		cubetrj cubes custom 500000 cubes.lammpstrj id mol type x y z vx vy vz
dump            com cubes local 100000 dump.*.xyz c_com[*]
dump	        xyz hull xyz 100000 cubes.xyz
dump            quat cubes      local 100000 dump.*.quat c_quat[*]
dump		order cubes 	local 100000 dump.*.order c_com[*] c_quat[*]
#dump		mol cubes molfile 10000 mol.xyz xyz


dump            2 all image 100000 image.*.png type type zoom 1.5 size 1280 720
dump_modify     2 pad 8
dump		image cubes image 100000 image_cubes.*.png type type zoom 1.5 size 1280 720
dump_modify	image pad 8
dump            3 all movie 5000 movie.avi type type zoom 1.5 size 1280 720
dump		4 cubes movie 5000 movie_cubes.avi type type size 1280 720


thermo          1000
thermo_style    custom step temp epair evdwl etotal press pe ke atoms

restart         1000000 restart.dat
timestep        0.005
timer           full
New timer settings: style=full  mode=nosync  timeout=off

run 		10000000
Per MPI rank memory allocation (min/avg/max) = 90.77 | 99.41 | 101.6 Mbytes
Step Temp E_pair E_vdwl TotEng Press PotEng KinEng Atoms 
       0    0.8094771   -2.4829278   -2.4829278   -1.5570117 -0.047109768   -2.4829278   0.92591606   461331 
    1000   0.80682508   -2.4815328   -2.4815328   -1.5586502  0.018985255   -2.4815328   0.92288255   461331 
    2000   0.80881917   -2.4830665   -2.4830665    -1.557903  0.016705838   -2.4830665   0.92516349   461331 
    3000   0.80983908   -2.4845769   -2.4845769   -1.5582468  0.021653776   -2.4845769    0.9263301   461331 
    4000    0.8111382   -2.4859997   -2.4859997   -1.5581836  0.028120538   -2.4859997    0.9278161   461331 
    5000   0.81399716   -2.4887282   -2.4887282   -1.5576419  0.031492387   -2.4887282    0.9310863   461331 
    6000   0.81599354   -2.4920317   -2.4920317   -1.5586619   0.03115531   -2.4920317   0.93336985   461331 
    7000   0.81623104   -2.4922509   -2.4922509   -1.5586093   0.03775032   -2.4922509   0.93364152   461331 
    8000   0.81698079   -2.4941568   -2.4941568   -1.5596577  0.042972909   -2.4941568   0.93449911   461331 
    9000   0.81933241    -2.497464    -2.497464    -1.560275     0.036891    -2.497464     0.937189   461331 
   10000   0.81819882    -2.498173    -2.498173   -1.5622807  0.043234777    -2.498173   0.93589235   461331 
   11000   0.81778844   -2.4988991   -2.4988991   -1.5634762  0.044516684   -2.4988991   0.93542294   461331 
   12000   0.81669149   -2.4996016   -2.4996016   -1.5654334  0.049879105   -2.4996016    0.9341682   461331 
   13000   0.81651392   -2.5014217   -2.5014217   -1.5674566  0.042760437   -2.5014217   0.93396509   461331 
   14000   0.81877938   -2.5046248   -2.5046248   -1.5680683  0.035175796   -2.5046248   0.93655642   461331 
   15000   0.81721375   -2.5041822   -2.5041822   -1.5694166  0.047005492   -2.5041822   0.93476558   461331 
   16000   0.81637723   -2.5037745   -2.5037745   -1.5699658  0.052608431   -2.5037745   0.93380874   461331 
   17000   0.81485605   -2.5036979   -2.5036979   -1.5716292  0.043558806   -2.5036979   0.93206874   461331 
   18000    0.8141003   -2.5028305   -2.5028305   -1.5716262  0.044059331   -2.5028305   0.93120428   461331 
   19000   0.81318506    -2.500893    -2.500893   -1.5707356  0.043401826    -2.500893   0.93015739   461331 
   20000   0.81225445    -2.500277    -2.500277   -1.5711841  0.033723032    -2.500277   0.92909292   461331 
   21000   0.81300375   -2.5010793   -2.5010793   -1.5711293  0.033563551   -2.5010793      0.92995   461331 
   22000   0.81190295   -2.5000483   -2.5000483   -1.5713575   0.02998236   -2.5000483   0.92869085   461331 
   23000   0.81273158   -2.5009486   -2.5009486     -1.57131  0.031006505   -2.5009486   0.92963867   461331 
   24000   0.81280518   -2.4996047   -2.4996047   -1.5698818  0.032757659   -2.4996047   0.92972286   461331 
   25000   0.81272662   -2.4986852   -2.4986852   -1.5690522  0.025082105   -2.4986852     0.929633   461331 
   26000   0.81104337   -2.4969339   -2.4969339   -1.5692263  0.036362815   -2.4969339   0.92770763   461331 
   27000    0.8116995   -2.4968718   -2.4968718   -1.5684136  0.036805881   -2.4968718   0.92845814   461331 
   28000    0.8112371   -2.4959151   -2.4959151   -1.5679859   0.03459885   -2.4959151   0.92792923   461331 
   29000    0.8113514    -2.496164    -2.496164   -1.5681041  0.034097257    -2.496164   0.92805997   461331 
   30000   0.80961179   -2.4946262   -2.4946262    -1.568556  0.032235104   -2.4946262   0.92607012   461331 
   31000   0.81186955   -2.4969308   -2.4969308   -1.5682781  0.029660849   -2.4969308   0.92865265   461331 
   32000   0.81066349     -2.49634     -2.49634   -1.5690669  0.026296326     -2.49634   0.92727311   461331 
   33000   0.81054115   -2.4962089   -2.4962089   -1.5690758   0.02690181   -2.4962089   0.92713316   461331 
   34000   0.81131825   -2.4968411   -2.4968411   -1.5688191  0.026652699   -2.4968411   0.92802205   461331 
   35000   0.81132699   -2.4970113   -2.4970113   -1.5689792  0.032642579   -2.4970113   0.92803204   461331 
   36000   0.81251082   -2.4987229   -2.4987229   -1.5693367  0.034818279   -2.4987229   0.92938617   461331 
   37000   0.81213856   -2.4978904   -2.4978904     -1.56893  0.040666225   -2.4978904   0.92896035   461331 
   38000    0.8119991   -2.4977351   -2.4977351   -1.5689343  0.044070301   -2.4977351   0.92880083   461331 
   39000   0.81291733   -2.5000306   -2.5000306   -1.5701794  0.037620493   -2.5000306   0.92985114   461331 
   40000   0.81244108   -2.4998089   -2.4998089   -1.5705025  0.038584329   -2.4998089   0.92930639   461331 
   41000   0.81272511   -2.5001343   -2.5001343    -1.570503  0.042200762   -2.5001343   0.92963128   461331 
   42000   0.81511872   -2.5024666   -2.5024666   -1.5700974  0.031529663   -2.5024666    0.9323692   461331 
   43000   0.81165811   -2.4998754   -2.4998754   -1.5714646  0.037385596   -2.4998754    0.9284108   461331 
   44000   0.81454155   -2.5029999   -2.5029999   -1.5712909  0.035202864   -2.5029999     0.931709   461331 
   45000   0.81282276   -2.5013167   -2.5013167   -1.5715737  0.039116607   -2.5013167   0.92974298   461331 
   46000   0.81345706   -2.5019118   -2.5019118   -1.5714433  0.043899387   -2.5019118   0.93046851   461331 
   47000    0.8142375   -2.5024824   -2.5024824   -1.5711212  0.037625504   -2.5024824   0.93136121   461331 
   48000   0.81468505    -2.503785    -2.503785   -1.5719118  0.040517003    -2.503785   0.93187314   461331 
   49000   0.81398966   -2.5022412   -2.5022412   -1.5711634   0.04202287   -2.5022412   0.93107772   461331 
   50000   0.81466197   -2.5031733   -2.5031733   -1.5713266  0.035137914   -2.5031733   0.93184675   461331 
   51000   0.81360094   -2.5017717   -2.5017717   -1.5711386  0.036467064   -2.5017717   0.93063309   461331 
   52000   0.81397873   -2.5029079   -2.5029079   -1.5718427  0.038377435   -2.5029079   0.93106523   461331 
   53000   0.81354619   -2.5026045   -2.5026045    -1.572034  0.037706766   -2.5026045   0.93057046   461331 
   54000    0.8119978   -2.5019751   -2.5019751   -1.5731758  0.032574003   -2.5019751   0.92879934   461331 
   55000   0.81174094   -2.5015743   -2.5015743   -1.5730688  0.036527411   -2.5015743   0.92850554   461331 
   56000   0.81130536   -2.5017265   -2.5017265   -1.5737192  0.034847185   -2.5017265   0.92800731   461331 
   57000   0.81019188   -2.5001307   -2.5001307    -1.573397  0.034633719   -2.5001307   0.92673365   461331 
   58000   0.81084114   -2.5006455   -2.5006455   -1.5731692  0.035817463   -2.5006455    0.9274763   461331 
   59000   0.81294566   -2.5025547   -2.5025547   -1.5726712  0.029030605   -2.5025547   0.92988355   461331 
   60000    0.8098649   -2.4999721   -2.4999721   -1.5736125  0.039380103   -2.4999721   0.92635964   461331 
   61000   0.81009907    -2.500721    -2.500721   -1.5740935  0.029773415    -2.500721   0.92662749   461331 
   62000   0.80963087   -2.4995702   -2.4995702   -1.5734783  0.032606589   -2.4995702   0.92609195   461331 
   63000   0.81022224     -2.49936     -2.49936   -1.5725916  0.035052428     -2.49936   0.92676838   461331 
   64000   0.81025127   -2.4984289   -2.4984289   -1.5716273  0.037426653   -2.4984289   0.92680159   461331 
   65000   0.81158963   -2.5008497   -2.5008497   -1.5725172  0.036928695   -2.5008497   0.92833247   461331 
   66000   0.81314226   -2.5018298   -2.5018298   -1.5717214  0.041233208   -2.5018298   0.93010844   461331 
   67000   0.81119618   -2.4999029   -2.4999029   -1.5720205  0.041590383   -2.4999029   0.92788241   461331 
   68000   0.81201678   -2.4998565   -2.4998565   -1.5710355  0.036509688   -2.4998565   0.92882105   461331 
   69000   0.81338613   -2.5012189   -2.5012189   -1.5708315  0.036087114   -2.5012189   0.93038737   461331 
   70000   0.81135756   -2.4990345   -2.4990345   -1.5709675   0.03978219   -2.4990345   0.92806701   461331 
   71000   0.81147204   -2.4997438   -2.4997438   -1.5715459  0.036954244   -2.4997438   0.92819796   461331 
   72000   0.81206429   -2.5006067   -2.5006067   -1.5717313  0.041042609   -2.5006067    0.9288754   461331 
   73000   0.81251046   -2.5010374   -2.5010374   -1.5716517  0.037814159   -2.5010374   0.92938575   461331 
   74000   0.81278063   -2.5016679   -2.5016679   -1.5719731  0.036915503   -2.5016679   0.92969479   461331 
   75000   0.81265208   -2.5011968   -2.5011968   -1.5716491  0.041641786   -2.5011968   0.92954774   461331 
   76000   0.81367178   -2.5019286   -2.5019286   -1.5712145  0.038175492   -2.5019286   0.93071412   461331 
   77000   0.81329241   -2.5021121   -2.5021121   -1.5718319  0.041452313   -2.5021121   0.93028018   461331 
   78000   0.81212415   -2.5005983   -2.5005983   -1.5716544  0.040046518   -2.5005983   0.92894387   461331 
   79000   0.81067533    -2.500831    -2.500831   -1.5735444  0.039332465    -2.500831   0.92728664   461331 
   80000   0.81052785   -2.5011224   -2.5011224   -1.5740044   0.03259318   -2.5011224   0.92711795   461331 
   81000   0.81076645   -2.5021408   -2.5021408   -1.5747499  0.036005635   -2.5021408   0.92739087   461331 
   82000   0.81014666   -2.5015468   -2.5015468   -1.5748648  0.033468018   -2.5015468   0.92668193   461331 
   83000   0.81043082   -2.5010972   -2.5010972   -1.5740903  0.030537006   -2.5010972   0.92700696   461331 
   84000   0.81151509   -2.5013466   -2.5013466   -1.5730994  0.030707656   -2.5013466    0.9282472   461331 
   85000   0.81236923    -2.503428    -2.503428   -1.5742038  0.029311005    -2.503428   0.92922421   461331 
   86000   0.81277866    -2.502217    -2.502217   -1.5725245   0.03793156    -2.502217   0.92969253   461331 
   87000   0.81426511   -2.5027769   -2.5027769   -1.5713841  0.033214961   -2.5027769   0.93139279   461331 
   88000   0.81275309   -2.5017164   -2.5017164   -1.5720532  0.040342585   -2.5017164   0.92966328   461331 
   89000    0.8130015   -2.5028002   -2.5028002   -1.5728528  0.038105468   -2.5028002   0.92994743   461331 
   90000   0.81144573   -2.5009195   -2.5009195   -1.5727517  0.041697644   -2.5009195   0.92816786   461331 
   91000   0.81142897   -2.5013252   -2.5013252   -1.5731765  0.039139167   -2.5013252   0.92814869   461331 
   92000   0.81285665   -2.5039003   -2.5039003   -1.5741186  0.031534763   -2.5039003   0.92978174   461331 
   93000   0.81165722   -2.5021875   -2.5021875   -1.5737778  0.033510622   -2.5021875   0.92840978   461331 
   94000   0.81001598   -2.5006807   -2.5006807   -1.5741482  0.038799283   -2.5006807   0.92653245   461331 
   95000   0.81238446   -2.5038468   -2.5038468   -1.5746052  0.028960135   -2.5038468   0.92924163   461331 
   96000   0.81019096   -2.5011917   -2.5011917   -1.5744591  0.036088886   -2.5011917    0.9267326   461331 
   97000   0.81182536   -2.5024163   -2.5024163   -1.5738142  0.040844163   -2.5024163    0.9286021   461331 
   98000   0.81166208   -2.5017661   -2.5017661   -1.5733508  0.041320042   -2.5017661   0.92841533   461331 
   99000   0.80984211   -2.5004166   -2.5004166    -1.574083  0.040340126   -2.5004166   0.92633357   461331 
  100000   0.81181122   -2.5029317   -2.5029317   -1.5743458  0.028940488   -2.5029317   0.92858593   461331 
  101000   0.81222417   -2.5034264   -2.5034264   -1.5743681  0.038356734   -2.5034264   0.92905827   461331 
  102000   0.81169438   -2.5026189   -2.5026189   -1.5741667  0.039856272   -2.5026189   0.92845228   461331 
  103000   0.81021836   -2.5012657   -2.5012657   -1.5745018  0.038814391   -2.5012657   0.92676394   461331 
  104000   0.81138326   -2.5031577   -2.5031577   -1.5750613  0.033262738   -2.5031577   0.92809641   461331 
  105000    0.8107514   -2.5029482   -2.5029482   -1.5755745  0.037680053   -2.5029482   0.92737365   461331 
  106000   0.81098963   -2.5039239   -2.5039239   -1.5762777  0.043616805   -2.5039239   0.92764615   461331 
  107000   0.81175851   -2.5054038   -2.5054038   -1.5768781  0.035134705   -2.5054038   0.92852564   461331 
  108000   0.81100838   -2.5044944   -2.5044944   -1.5768268    0.0380522   -2.5044944   0.92766761   461331 
  109000   0.81186083   -2.5052721   -2.5052721   -1.5766294  0.043692476   -2.5052721   0.92864267   461331 
  110000   0.81252623   -2.5059435   -2.5059435   -1.5765397  0.036109079   -2.5059435   0.92940379   461331 
  111000   0.81374497   -2.5077674   -2.5077674   -1.5769695  0.031869544   -2.5077674   0.93079784   461331 
  112000   0.81170412   -2.5053731   -2.5053731   -1.5769097  0.033703654   -2.5053731   0.92846342   461331 
  113000   0.81063611    -2.504902    -2.504902   -1.5776603  0.033589776    -2.504902   0.92724178   461331 
  114000   0.81045481   -2.5047677   -2.5047677   -1.5777333   0.04004927   -2.5047677   0.92703441   461331 
  115000   0.81041989   -2.5044536   -2.5044536   -1.5774591  0.035984311   -2.5044536   0.92699446   461331 
  116000   0.81251699   -2.5082371   -2.5082371   -1.5788439  0.038031622   -2.5082371   0.92939322   461331 
  117000   0.81131667   -2.5061451   -2.5061451   -1.5781248  0.034948583   -2.5061451   0.92802024   461331 
  118000   0.81222729   -2.5063713   -2.5063713   -1.5773094  0.035875347   -2.5063713   0.92906185   461331 
  119000   0.81157894   -2.5053623   -2.5053623   -1.5770421  0.035122577   -2.5053623   0.92832024   461331 
  120000   0.81160597     -2.50597     -2.50597   -1.5776189  0.038204452     -2.50597   0.92835115   461331 
  121000   0.81056143   -2.5053253   -2.5053253    -1.578169  0.033362028   -2.5053253   0.92715636   461331 
  122000   0.80917733   -2.5043807   -2.5043807   -1.5788075  0.034585263   -2.5043807   0.92557317   461331 
  123000   0.80764389   -2.5033391   -2.5033391     -1.57952   0.03399755   -2.5033391   0.92381915   461331 
  124000   0.80887262   -2.5042189   -2.5042189   -1.5789943  0.031458634   -2.5042189   0.92522462   461331 
  125000   0.80939689    -2.504945    -2.504945   -1.5791207   0.02986377    -2.504945   0.92582431   461331 
  126000   0.80969173   -2.5048412   -2.5048412   -1.5786797  0.036472256   -2.5048412   0.92616156   461331 
  127000   0.81073423   -2.5056688   -2.5056688   -1.5783147  0.038497532   -2.5056688   0.92735402   461331 
  128000   0.80965817     -2.50366     -2.50366   -1.5775368  0.037524554     -2.50366   0.92612318   461331 
  129000   0.81053154   -2.5045994   -2.5045994   -1.5774772  0.037124894   -2.5045994   0.92712217   461331 
  130000   0.81032233   -2.5047094   -2.5047094   -1.5778265  0.036117276   -2.5047094   0.92688287   461331 
  131000   0.80948072   -2.5043399   -2.5043399   -1.5784197  0.037816468   -2.5043399   0.92592019   461331 
  132000   0.81098963   -2.5045143   -2.5045143   -1.5768681  0.045043163   -2.5045143   0.92764616   461331 
  133000    0.8115885   -2.5058398   -2.5058398   -1.5775087  0.038067132   -2.5058398   0.92833117   461331 
  134000   0.81155197   -2.5059883   -2.5059883   -1.5776989  0.037385698   -2.5059883   0.92828939   461331 
  135000   0.81082582   -2.5049614   -2.5049614   -1.5775026  0.034127355   -2.5049614   0.92745879   461331 
  136000   0.81116008   -2.5060677   -2.5060677   -1.5782266  0.035150831   -2.5060677   0.92784113   461331 
  137000   0.81096254    -2.506176    -2.506176   -1.5785608   0.03670854    -2.506176   0.92761517   461331 
  138000   0.80986368   -2.5041556   -2.5041556   -1.5777974  0.041946527   -2.5041556   0.92635824   461331 
  139000    0.8099186   -2.5045558   -2.5045558   -1.5781347  0.034842724   -2.5045558   0.92642106   461331 
  140000   0.81019064   -2.5052202   -2.5052202    -1.578488  0.035209498   -2.5052202   0.92673223   461331 
  141000   0.81056671   -2.5056358   -2.5056358   -1.5784734  0.035278024   -2.5056358    0.9271624   461331 
  142000   0.81086532   -2.5056055   -2.5056055   -1.5781015    0.0370862   -2.5056055   0.92750397   461331 
  143000   0.81173806   -2.5072305   -2.5072305   -1.5787282  0.038081964   -2.5072305   0.92850224   461331 
  144000   0.81007505   -2.5046469   -2.5046469   -1.5780468  0.036611612   -2.5046469   0.92660002   461331 
  145000   0.81114905   -2.5052733   -2.5052733   -1.5774448   0.03194432   -2.5052733   0.92782851   461331 
  146000   0.81025806   -2.5048561   -2.5048561   -1.5780468  0.039264863   -2.5048561   0.92680935   461331 
  147000   0.81016203   -2.5044322   -2.5044322   -1.5777327  0.038594281   -2.5044322   0.92669951   461331 
  148000    0.8115728   -2.5060592   -2.5060592    -1.577746  0.037310215   -2.5060592   0.92831321   461331 
  149000   0.81022239   -2.5059328   -2.5059328   -1.5791642  0.030320709   -2.5059328   0.92676855   461331 
  150000   0.80955062   -2.5055787   -2.5055787   -1.5795785  0.030664893   -2.5055787   0.92600015   461331 
  151000   0.81140548   -2.5068491   -2.5068491   -1.5787273   0.03421015   -2.5068491   0.92812182   461331 
  152000   0.81038782   -2.5052935   -2.5052935   -1.5783357  0.037586777   -2.5052935   0.92695778   461331 
  153000   0.81037289   -2.5050768   -2.5050768   -1.5781361  0.030461226   -2.5050768    0.9269407   461331 
  154000    0.8100177   -2.5044583   -2.5044583   -1.5779239  0.034453162   -2.5044583   0.92653442   461331 
  155000   0.80937689   -2.5039572   -2.5039572   -1.5781558  0.035315766   -2.5039572   0.92580144   461331 
  156000   0.81242013   -2.5065103   -2.5065103   -1.5772279  0.033083428   -2.5065103   0.92928243   461331 
  157000   0.81187698   -2.5056063   -2.5056063   -1.5769452  0.044140682   -2.5056063   0.92866115   461331 
  158000   0.81200679   -2.5055958   -2.5055958   -1.5767861  0.041904885   -2.5055958   0.92880963   461331 
  159000   0.81157675    -2.505795    -2.505795   -1.5774773  0.043753777    -2.505795   0.92831773   461331 
  160000   0.81006657   -2.5044494   -2.5044494    -1.577859  0.036281047   -2.5044494   0.92659032   461331 
  161000   0.81167293   -2.5068474   -2.5068474   -1.5784197  0.031925489   -2.5068474   0.92842775   461331 
  162000   0.81034376   -2.5060173   -2.5060173   -1.5791099   0.04078813   -2.5060173   0.92690738   461331 
  163000   0.81034754   -2.5052972   -2.5052972   -1.5783855  0.045764275   -2.5052972    0.9269117   461331 
  164000   0.81019394   -2.5058482   -2.5058482   -1.5791122  0.036245723   -2.5058482   0.92673601   461331 
  165000   0.81096825   -2.5072725   -2.5072725   -1.5796509  0.035285923   -2.5072725    0.9276217   461331 
  166000   0.80916433   -2.5057442   -2.5057442   -1.5801859  0.037984093   -2.5057442    0.9255583   461331 
  167000   0.80947388   -2.5058667   -2.5058667   -1.5799543  0.037851993   -2.5058667   0.92591237   461331 
  168000   0.80998675   -2.5062061   -2.5062061    -1.579707  0.031888241   -2.5062061   0.92649902   461331 
  169000   0.81007631   -2.5067666   -2.5067666   -1.5801651  0.041449897   -2.5067666   0.92660146   461331 
  170000   0.81098465   -2.5071137   -2.5071137   -1.5794732  0.033137484   -2.5071137   0.92764046   461331 
  171000   0.81007864    -2.506984    -2.506984   -1.5803799   0.03561164    -2.506984   0.92660413   461331 
  172000    0.8107992   -2.5075863   -2.5075863    -1.580158   0.03732413   -2.5075863   0.92742833   461331 
  173000   0.81068362   -2.5073935   -2.5073935   -1.5800974  0.045176428   -2.5073935   0.92729612   461331 
  174000   0.80978474   -2.5071238   -2.5071238   -1.5808559  0.043557791   -2.5071238   0.92626795   461331 
  175000   0.80979597   -2.5063691   -2.5063691   -1.5800883  0.037174266   -2.5063691    0.9262808   461331 
  176000   0.80975267   -2.5066252   -2.5066252   -1.5803939  0.037751603   -2.5066252   0.92623127   461331 
  177000   0.81032762   -2.5073781   -2.5073781   -1.5804891  0.035785853   -2.5073781   0.92688892   461331 
  178000   0.81065754   -2.5087068   -2.5087068   -1.5814405  0.035634426   -2.5087068    0.9272663   461331 
  179000   0.80981508   -2.5077368   -2.5077368   -1.5814342  0.033030731   -2.5077368   0.92630265   461331 
  180000   0.80982562   -2.5069634   -2.5069634   -1.5806487  0.031903163   -2.5069634    0.9263147   461331 
  181000   0.80851519   -2.5057085   -2.5057085   -1.5808927  0.038326927   -2.5057085   0.92481578   461331 
  182000   0.81011778   -2.5075277   -2.5075277   -1.5808788  0.039816868   -2.5075277   0.92664889   461331 
  183000   0.81038022   -2.5078371   -2.5078371    -1.580888  0.035409065   -2.5078371   0.92694908   461331 
  184000    0.8107961   -2.5088346   -2.5088346   -1.5814098  0.036992202   -2.5088346   0.92742479   461331 
  185000   0.81082603   -2.5078773   -2.5078773   -1.5804183  0.042745356   -2.5078773   0.92745902   461331 
  186000   0.81103066   -2.5084436   -2.5084436   -1.5807505  0.039050256   -2.5084436   0.92769309   461331 
  187000   0.81066174   -2.5076371   -2.5076371    -1.580366  0.041152478   -2.5076371    0.9272711   461331 
  188000   0.80998405   -2.5078092   -2.5078092   -1.5813133  0.036842979   -2.5078092   0.92649592   461331 
  189000   0.81059885   -2.5076485   -2.5076485   -1.5804494  0.034724446   -2.5076485   0.92719916   461331 
  190000   0.81032747   -2.5078714   -2.5078714   -1.5809826  0.032271682   -2.5078714   0.92688874   461331 
  191000   0.81009876   -2.5076138   -2.5076138   -1.5809867  0.035126358   -2.5076138   0.92662714   461331 
  192000   0.81031652   -2.5078983   -2.5078983   -1.5810221  0.039324133   -2.5078983   0.92687622   461331 
  193000   0.81078899   -2.5078772   -2.5078772   -1.5804606  0.039578403   -2.5078772   0.92741665   461331 
  194000    0.8111502   -2.5074511   -2.5074511   -1.5796213  0.029793873   -2.5074511   0.92782982   461331 
  195000   0.81102016   -2.5077065   -2.5077065   -1.5800254  0.026403611   -2.5077065   0.92768108   461331 
  196000   0.81093587   -2.5074626   -2.5074626   -1.5798779  0.036175485   -2.5074626   0.92758466   461331 
  197000   0.81009009   -2.5057978   -2.5057978   -1.5791806  0.037490713   -2.5057978   0.92661722   461331 
  198000   0.80959952   -2.5056412   -2.5056412   -1.5795851   0.03839239   -2.5056412   0.92605608   461331 
  199000   0.81036169   -2.5069276   -2.5069276   -1.5799997  0.038738099   -2.5069276   0.92692789   461331 
  200000   0.81009842   -2.5058833   -2.5058833   -1.5792566   0.03816101   -2.5058833   0.92662675   461331 
  201000   0.81075464   -2.5065883   -2.5065883   -1.5792109   0.03735497   -2.5065883   0.92737737   461331 
  202000   0.80998336   -2.5054813   -2.5054813   -1.5789862  0.038266993   -2.5054813   0.92649514   461331 
  203000   0.80992987    -2.504885    -2.504885   -1.5784511  0.039027537    -2.504885   0.92643396   461331 
  204000   0.81073824   -2.5040555   -2.5040555   -1.5766969  0.033721617   -2.5040555   0.92735861   461331 
  205000   0.81015401   -2.5050065   -2.5050065   -1.5783162    0.0338947   -2.5050065   0.92669033   461331 
  206000   0.80888754   -2.5041292   -2.5041292   -1.5788875  0.035536058   -2.5041292    0.9252417   461331 
  207000   0.80978364   -2.5053861   -2.5053861   -1.5791194  0.039493875   -2.5053861   0.92626669   461331 
  208000   0.81013847   -2.5054443   -2.5054443   -1.5787717  0.036294562   -2.5054443   0.92667256   461331 
  209000    0.8106228   -2.5062534   -2.5062534   -1.5790268  0.037393832   -2.5062534   0.92722656   461331 
  210000   0.81017994   -2.5056974   -2.5056974   -1.5789774  0.032228251   -2.5056974   0.92671999   461331 
  211000   0.81048995   -2.5058569   -2.5058569   -1.5787823  0.032728662   -2.5058569   0.92707461   461331 
  212000   0.80882925   -2.5038539   -2.5038539   -1.5786789  0.033604989   -2.5038539   0.92517501   461331 
  213000   0.80959247   -2.5050263   -2.5050263   -1.5789782  0.027626509   -2.5050263   0.92604802   461331 
  214000   0.80935149   -2.5061748   -2.5061748   -1.5804024  0.032905456   -2.5061748   0.92577238   461331 
  215000   0.80980204   -2.5060311   -2.5060311   -1.5797433  0.038182165   -2.5060311   0.92628774   461331 
  216000   0.81155765   -2.5075225   -2.5075225   -1.5792266   0.03356506   -2.5075225   0.92829588   461331 
  217000   0.80931298   -2.5053454   -2.5053454    -1.579617  0.042392476   -2.5053454   0.92572833   461331 
  218000   0.81027634   -2.5065202   -2.5065202     -1.57969  0.036690785   -2.5065202   0.92683026   461331 
  219000   0.81109623   -2.5073539   -2.5073539   -1.5795858  0.031600948   -2.5073539   0.92776809   461331 
  220000   0.81003485   -2.5062449   -2.5062449   -1.5796909  0.032109612   -2.5062449   0.92655404   461331 
  221000   0.80968251   -2.5062874   -2.5062874   -1.5801363  0.039077595   -2.5062874   0.92615102   461331 
  222000    0.8111183   -2.5078698   -2.5078698   -1.5800764  0.033161991   -2.5078698   0.92779333   461331 
  223000   0.81110509   -2.5068863   -2.5068863   -1.5791081  0.042086641   -2.5068863   0.92777822   461331 
  224000   0.81053061   -2.5071444   -2.5071444   -1.5800233  0.034237468   -2.5071444    0.9271211   461331 
  225000   0.81032472   -2.5062177   -2.5062177   -1.5793321  0.039849379   -2.5062177   0.92688561   461331 
  226000   0.81042548   -2.5062748   -2.5062748    -1.579274  0.049546249   -2.5062748   0.92700086   461331 
  227000   0.81075854   -2.5069837   -2.5069837   -1.5796019  0.037325055   -2.5069837   0.92738183   461331 
  228000   0.81013466   -2.5063989   -2.5063989   -1.5797307   0.03801739   -2.5063989    0.9266682   461331 
  229000   0.81051146   -2.5066066   -2.5066066   -1.5795074  0.041776326   -2.5066066    0.9270992   461331 
  230000   0.81054316    -2.507916    -2.507916   -1.5807805  0.029252317    -2.507916   0.92713547   461331 
  231000   0.81027274   -2.5077866   -2.5077866   -1.5809605  0.030287943   -2.5077866   0.92682614   461331 
  232000   0.81014537   -2.5082887   -2.5082887   -1.5816083  0.035907923   -2.5082887   0.92668045   461331 
  233000   0.80778365   -2.5069122   -2.5069122   -1.5829332  0.034431174   -2.5069122   0.92397902   461331 
  234000   0.80816574   -2.5076956   -2.5076956   -1.5832796  0.034926173   -2.5076956   0.92441606   461331 
  235000   0.80818613    -2.507097    -2.507097   -1.5826576  0.033447849    -2.507097   0.92443938   461331 
  236000    0.8076651   -2.5058712   -2.5058712   -1.5820278  0.035538225   -2.5058712   0.92384341   461331 
  237000   0.80996761   -2.5083408   -2.5083408   -1.5818637  0.035595089   -2.5083408   0.92647713   461331 
  238000   0.81003472   -2.5086039   -2.5086039     -1.58205  0.032421535   -2.5086039   0.92655389   461331 
  239000   0.81062338   -2.5093981   -2.5093981   -1.5821709  0.037136698   -2.5093981   0.92722722   461331 
  240000   0.81031644   -2.5086778   -2.5086778   -1.5818016  0.042553697   -2.5086778   0.92687613   461331 
  241000   0.81078328   -2.5094723   -2.5094723   -1.5820621  0.041723589   -2.5094723   0.92741012   461331 
  242000   0.81003447   -2.5081127   -2.5081127   -1.5815591  0.039758831   -2.5081127    0.9265536   461331 
  243000   0.81112895    -2.509067    -2.509067   -1.5812615  0.032921069    -2.509067   0.92780552   461331 
  244000   0.81001886   -2.5084352   -2.5084352   -1.5818995  0.038900894   -2.5084352   0.92653575   461331 
  245000    0.8105972   -2.5100219   -2.5100219   -1.5828247  0.035655657   -2.5100219   0.92719728   461331 
  246000   0.80926385   -2.5081334   -2.5081334   -1.5824613  0.037967889   -2.5081334   0.92567213   461331 
  247000   0.80862269   -2.5070435   -2.5070435   -1.5821047  0.044545909   -2.5070435   0.92493874   461331 
  248000   0.81070232   -2.5095091   -2.5095091   -1.5821916  0.037886492   -2.5095091   0.92731752   461331 
  249000   0.81047388   -2.5101146   -2.5101146   -1.5830584   0.04151142   -2.5101146   0.92705622   461331 
  250000    0.8088503   -2.5082366   -2.5082366   -1.5830375  0.037751115   -2.5082366   0.92519909   461331 
  251000   0.80918724   -2.5078193   -2.5078193   -1.5822348  0.035043398   -2.5078193    0.9255845   461331 
  252000   0.80899941   -2.5070824   -2.5070824   -1.5817127  0.036892022   -2.5070824   0.92536965   461331 
  253000   0.80869677   -2.5061495   -2.5061495    -1.581126  0.034713722   -2.5061495   0.92502348   461331 
  254000    0.8087339    -2.506352    -2.506352   -1.5812861  0.030391996    -2.506352   0.92506595   461331 
  255000   0.80904923   -2.5077356   -2.5077356    -1.582309  0.032969368   -2.5077356   0.92542664   461331 
  256000   0.80786032   -2.5062202   -2.5062202   -1.5821535  0.035030812   -2.5062202   0.92406671   461331 
  257000   0.81025296   -2.5081867   -2.5081867   -1.5813832  0.042850544   -2.5081867   0.92680352   461331 
  258000   0.80873845   -2.5065456   -2.5065456   -1.5814744  0.034176167   -2.5065456   0.92507116   461331 
  259000   0.80929079   -2.5073339   -2.5073339    -1.581631  0.040312147   -2.5073339   0.92570295   461331 
  260000   0.80911121   -2.5071002   -2.5071002   -1.5816027  0.040255854   -2.5071002   0.92549753   461331 
  261000   0.80976595   -2.5082298   -2.5082298   -1.5819833  0.030621176   -2.5082298   0.92624646   461331 
  262000   0.81006464     -2.50877     -2.50877   -1.5821819  0.034666621     -2.50877   0.92658811   461331 
  263000   0.80869091   -2.5071732   -2.5071732   -1.5821564   0.03571406   -2.5071732   0.92501677   461331 
  264000   0.80927668   -2.5073626   -2.5073626   -1.5816758  0.038127448   -2.5073626    0.9256868   461331 
  265000   0.80931573   -2.5087438   -2.5087438   -1.5830123  0.037633012   -2.5087438   0.92573147   461331 
  266000    0.8095008   -2.5094499   -2.5094499   -1.5835067  0.038079654   -2.5094499   0.92594317   461331 
  267000   0.80976868   -2.5098255   -2.5098255   -1.5835759   0.03487058   -2.5098255   0.92624958   461331 
  268000   0.80962125   -2.5099112   -2.5099112   -1.5838303  0.033949016   -2.5099112   0.92608094   461331 
  269000   0.80929009   -2.5083686   -2.5083686   -1.5826664  0.042421973   -2.5083686   0.92570215   461331 
  270000   0.80931381    -2.509895    -2.509895   -1.5841657  0.036301845    -2.509895   0.92572928   461331 
  271000   0.81026146   -2.5097828   -2.5097828   -1.5829696  0.042053482   -2.5097828   0.92681325   461331 
  272000   0.81026142   -2.5098842   -2.5098842    -1.583071    0.0443616   -2.5098842    0.9268132   461331 
  273000   0.80963577    -2.509023    -2.509023   -1.5829254  0.037764189    -2.509023   0.92609755   461331 
  274000   0.80955037   -2.5091123   -2.5091123   -1.5831125   0.03969171   -2.5091123   0.92599986   461331 
  275000   0.81119899   -2.5103597   -2.5103597   -1.5824741  0.037878484   -2.5103597   0.92788563   461331 
  276000   0.80973628    -2.509403    -2.509403   -1.5831905  0.037914404    -2.509403   0.92621252   461331 
  277000   0.81105847    -2.509985    -2.509985   -1.5822601  0.028998374    -2.509985    0.9277249   461331 
  278000   0.81015779   -2.5096056   -2.5096056   -1.5829109  0.037973206   -2.5096056   0.92669466   461331 
  279000   0.80966398   -2.5089181   -2.5089181   -1.5827883  0.034572299   -2.5089181   0.92612982   461331 
  280000   0.80987964   -2.5088046   -2.5088046   -1.5824281   0.03462845   -2.5088046    0.9263765   461331 
  281000   0.80874861   -2.5090112   -2.5090112   -1.5839285    0.0336939   -2.5090112   0.92508278   461331 
  282000   0.80926692   -2.5092223   -2.5092223   -1.5835466  0.028329314   -2.5092223   0.92567565   461331 
  283000   0.80861952   -2.5083899   -2.5083899   -1.5834548  0.032249338   -2.5083899   0.92493512   461331 
  284000   0.80880934   -2.5088154   -2.5088154   -1.5836632  0.035378168   -2.5088154   0.92515225   461331 
  285000   0.80677606   -2.5058028   -2.5058028   -1.5829763  0.034881005   -2.5058028   0.92282649   461331 
  286000   0.80799834   -2.5062053   -2.5062053   -1.5819807  0.035319721   -2.5062053   0.92422458   461331 
  287000   0.80979568   -2.5087494   -2.5087494    -1.582469  0.035542721   -2.5087494   0.92628046   461331 
  288000   0.80869128   -2.5077064   -2.5077064   -1.5826892  0.036364601   -2.5077064    0.9250172   461331 
  289000   0.80895525   -2.5077651   -2.5077651    -1.582446  0.030402723   -2.5077651   0.92531915   461331 
  290000   0.80933514   -2.5082511   -2.5082511   -1.5824974  0.036424811   -2.5082511   0.92575368   461331 
  291000   0.80979515   -2.5087856   -2.5087856   -1.5825057  0.038093178   -2.5087856   0.92627985   461331 
  292000   0.81001402   -2.5088863   -2.5088863   -1.5823561  0.031028254   -2.5088863   0.92653021   461331 
  293000   0.80978552   -2.5091147   -2.5091147   -1.5828459  0.035300366   -2.5091147   0.92626884   461331 
  294000   0.81037011   -2.5092883   -2.5092883   -1.5823508  0.043344882   -2.5092883   0.92693752   461331 
  295000   0.80952525   -2.5097942   -2.5097942   -1.5838231  0.036745782   -2.5097942   0.92597113   461331 
  296000   0.80979376    -2.509244    -2.509244   -1.5829658  0.042210369    -2.509244   0.92627827   461331 
  297000   0.80933392   -2.5099522   -2.5099522   -1.5841999  0.037003934   -2.5099522   0.92575228   461331 
  298000   0.80867161   -2.5100874   -2.5100874   -1.5850927   0.03948916   -2.5100874    0.9249947   461331 
  299000   0.80819763   -2.5086337   -2.5086337   -1.5841811  0.035358072   -2.5086337   0.92445255   461331 
  300000   0.80852989   -2.5093184   -2.5093184   -1.5844858  0.042339455   -2.5093184    0.9248326   461331 
  301000   0.80890117   -2.5093025   -2.5093025   -1.5840452  0.036714315   -2.5093025   0.92525728   461331 
  302000   0.80910114   -2.5087243   -2.5087243   -1.5832383  0.036673273   -2.5087243   0.92548601   461331 
  303000   0.81006859   -2.5096603   -2.5096603   -1.5830677  0.036010919   -2.5096603   0.92659263   461331 
  304000   0.80938617   -2.5088973   -2.5088973   -1.5830853  0.039566898   -2.5088973   0.92581205   461331 
  305000   0.80999231   -2.5097224   -2.5097224   -1.5832171  0.038637196   -2.5097224   0.92650538   461331 
  306000   0.80930394   -2.5095439   -2.5095439   -1.5838259   0.03962617   -2.5095439   0.92571799   461331 
  307000     0.808541   -2.5087066   -2.5087066   -1.5838613  0.035105252   -2.5087066   0.92484531   461331 
  308000   0.80819904   -2.5086722   -2.5086722    -1.584218  0.031322513   -2.5086722   0.92445415   461331 
  309000   0.80892189   -2.5086911   -2.5086911   -1.5834101  0.035073236   -2.5086911   0.92528099   461331 
  310000   0.80869259   -2.5096007   -2.5096007    -1.584582  0.034489971   -2.5096007    0.9250187   461331 
  311000   0.80907615   -2.5094732   -2.5094732   -1.5840158  0.033337821   -2.5094732   0.92545743   461331 
  312000   0.80835103   -2.5092965   -2.5092965   -1.5846685  0.033022843   -2.5092965     0.924628   461331 
  313000   0.80912361   -2.5110378   -2.5110378    -1.585526  0.040114158   -2.5110378   0.92551172   461331 
  314000   0.80940157    -2.510555    -2.510555   -1.5847253  0.041772164    -2.510555   0.92582966   461331 
  315000   0.80938461   -2.5101808   -2.5101808   -1.5843706  0.034898331   -2.5101808   0.92581026   461331 
  316000   0.80760697   -2.5082612   -2.5082612   -1.5844843  0.035879105   -2.5082612   0.92377692   461331 
  317000   0.80816614   -2.5092554   -2.5092554   -1.5848389  0.038572834   -2.5092554   0.92441652   461331 
  318000   0.80890155   -2.5107339   -2.5107339   -1.5854762  0.039358598   -2.5107339   0.92525772   461331 
  319000   0.81063362   -2.5131173   -2.5131173   -1.5858783  0.037476423   -2.5131173   0.92723893   461331 
  320000    0.8078109   -2.5100701   -2.5100701   -1.5860599  0.036691391   -2.5100701   0.92401018   461331 
  321000   0.80893016   -2.5099496   -2.5099496   -1.5846592   0.03992051   -2.5099496   0.92529044   461331 
  322000     0.810001   -2.5112602   -2.5112602   -1.5847449  0.036827186   -2.5112602   0.92651532   461331 
  323000   0.81064666   -2.5120536   -2.5120536   -1.5847998  0.046975114   -2.5120536   0.92725385   461331 
  324000   0.81066466   -2.5123622   -2.5123622   -1.5850878  0.038674234   -2.5123622   0.92727444   461331 
  325000   0.80935292   -2.5104802   -2.5104802   -1.5847062   0.04076151   -2.5104802   0.92577402   461331 
  326000   0.81119975   -2.5123973   -2.5123973   -1.5845108  0.035585664   -2.5123973    0.9278865   461331 
  327000   0.80854382   -2.5103572   -2.5103572   -1.5855087  0.036687537   -2.5103572   0.92484853   461331 
  328000   0.80778981   -2.5105213   -2.5105213   -1.5865352  0.038101955   -2.5105213   0.92398605   461331 
  329000   0.80836219   -2.5107895   -2.5107895   -1.5861487   0.03247115   -2.5107895   0.92464077   461331 
  330000   0.80831271   -2.5114061   -2.5114061   -1.5868219  0.029984628   -2.5114061   0.92458417   461331 
  331000   0.80831649   -2.5108113   -2.5108113   -1.5862228   0.03851047   -2.5108113    0.9245885   461331 
  332000   0.80920571   -2.5116543   -2.5116543   -1.5860487  0.032607603   -2.5116543   0.92560563   461331 
  333000   0.80864169   -2.5111414   -2.5111414   -1.5861809  0.033572957   -2.5111414   0.92496048   461331 
  334000     0.807368   -2.5094494   -2.5094494   -1.5859458   0.03133616   -2.5094494   0.92350357   461331 
  335000   0.80924053   -2.5103719   -2.5103719   -1.5847265   0.03240945   -2.5103719   0.92564545   461331 
  336000   0.80882219   -2.5107568   -2.5107568   -1.5855899  0.040916335   -2.5107568   0.92516694   461331 
  337000   0.80864915   -2.5106111   -2.5106111   -1.5856421  0.036204051   -2.5106111   0.92496901   461331 
  338000   0.81014104   -2.5120416   -2.5120416   -1.5853661  0.036762431   -2.5120416    0.9266755   461331 
  339000   0.81004996   -2.5129948   -2.5129948   -1.5864235  0.040576188   -2.5129948   0.92657131   461331 
  340000     0.808977   -2.5116762   -2.5116762   -1.5863322  0.035480676   -2.5116762   0.92534403   461331 
  341000   0.80887877   -2.5117159   -2.5117159   -1.5864842  0.035404175   -2.5117159   0.92523166   461331 
  342000   0.80921289    -2.512293    -2.512293   -1.5866792  0.039535656    -2.512293   0.92561384   461331 
  343000   0.80812283   -2.5107401   -2.5107401   -1.5863731  0.036747846   -2.5107401   0.92436698   461331 
  344000   0.80813332   -2.5121311   -2.5121311   -1.5877522  0.030010694   -2.5121311   0.92437898   461331 
  345000   0.80823472   -2.5126018   -2.5126018   -1.5881068  0.030539329   -2.5126018   0.92449496   461331 
  346000   0.80978776   -2.5136317   -2.5136317   -1.5873603  0.034647097   -2.5136317    0.9262714   461331 
  347000   0.80985365   -2.5133312   -2.5133312   -1.5869845  0.034442991   -2.5133312   0.92634677   461331 
  348000   0.80957619   -2.5130033   -2.5130033   -1.5869739  0.040517509   -2.5130033    0.9260294   461331 
  349000   0.80876286   -2.5116816   -2.5116816   -1.5865825  0.041110558   -2.5116816   0.92509908   461331 
  350000   0.80827089   -2.5107722   -2.5107722   -1.5862359  0.042557344   -2.5107722   0.92453634   461331 
  351000   0.80920697   -2.5115277   -2.5115277   -1.5859206  0.041875653   -2.5115277   0.92560707   461331 
  352000   0.80930678   -2.5121168   -2.5121168   -1.5863955  0.034815126   -2.5121168   0.92572123   461331 
  353000   0.80987575   -2.5132968   -2.5132968   -1.5869248  0.036782882   -2.5132968   0.92637205   461331 
  354000   0.80901713   -2.5123321   -2.5123321   -1.5869422  0.041816112   -2.5123321   0.92538992   461331 
  355000   0.80806046   -2.5116654   -2.5116654   -1.5873697  0.037267248   -2.5116654   0.92429564   461331 
  356000   0.80787813   -2.5113407   -2.5113407   -1.5872537  0.035431214   -2.5113407   0.92408708   461331 
  357000   0.80967939   -2.5134215   -2.5134215   -1.5872741  0.034373469   -2.5134215   0.92614745   461331 
  358000    0.8091043   -2.5133746   -2.5133746    -1.587885  0.035322061   -2.5133746   0.92548963   461331 
  359000   0.80738677   -2.5119215   -2.5119215   -1.5883965  0.031367314   -2.5119215   0.92352504   461331 
  360000    0.8081573   -2.5122104   -2.5122104    -1.587804   0.03354696   -2.5122104   0.92440641   461331 
  361000   0.80803942    -2.512283    -2.512283   -1.5880114   0.04216882    -2.512283   0.92427158   461331 
  362000   0.80920412   -2.5127154   -2.5127154   -1.5871116  0.032599607   -2.5127154   0.92560381   461331 
  363000   0.80819646    -2.511406    -2.511406   -1.5869548  0.037025584    -2.511406    0.9244512   461331 
  364000   0.81037159   -2.5127956   -2.5127956   -1.5858564  0.037492204   -2.5127956   0.92693921   461331 
  365000   0.80899792     -2.51165     -2.51165   -1.5862821  0.043460357     -2.51165   0.92536794   461331 
  366000   0.81004622   -2.5127644   -2.5127644   -1.5861973  0.033772017   -2.5127644   0.92656704   461331 
  367000   0.81156867   -2.5141318   -2.5141318   -1.5858233  0.029554696   -2.5141318   0.92830848   461331 
  368000   0.81043926   -2.5124978   -2.5124978   -1.5854812  0.033456769   -2.5124978   0.92701661   461331 
  369000   0.80901392   -2.5120011   -2.5120011   -1.5866149  0.037745761   -2.5120011   0.92538626   461331 
  370000   0.80937387   -2.5118673   -2.5118673   -1.5860693  0.042442913   -2.5118673   0.92579798   461331 
  371000   0.80829687   -2.5116334   -2.5116334   -1.5870673  0.031053181   -2.5116334   0.92456606   461331 
  372000    0.8080661   -2.5110113   -2.5110113   -1.5867092  0.028150469   -2.5110113   0.92430209   461331 
  373000   0.80755944   -2.5119283   -2.5119283   -1.5882058  0.032491926   -2.5119283   0.92372256   461331 
  374000   0.80852308   -2.5125908   -2.5125908    -1.587766  0.036631749   -2.5125908   0.92482481   461331 
  375000   0.80626654   -2.5103495   -2.5103495   -1.5881059  0.042197815   -2.5103495   0.92224368   461331 
  376000   0.80778989   -2.5111084   -2.5111084   -1.5871223  0.037504712   -2.5111084   0.92398615   461331 
  377000   0.80911493    -2.511896    -2.511896   -1.5863942  0.033846984    -2.511896    0.9255018   461331 
  378000   0.80825595   -2.5102284   -2.5102284   -1.5857092  0.039100853   -2.5102284   0.92451925   461331 
  379000   0.80917897   -2.5128889   -2.5128889   -1.5873139  0.034652604   -2.5128889   0.92557504   461331 
  380000   0.80814991   -2.5123448   -2.5123448   -1.5879468  0.032778038   -2.5123448   0.92439796   461331 
  381000   0.80944898   -2.5141549   -2.5141549    -1.588271  0.038034566   -2.5141549    0.9258839   461331 
  382000    0.8074637   -2.5120056   -2.5120056   -1.5883926  0.034959704   -2.5120056   0.92361304   461331 
  383000    0.8087495   -2.5127026   -2.5127026   -1.5876188   0.03239887   -2.5127026   0.92508379   461331 
  384000   0.81103956   -2.5144253   -2.5144253    -1.586722  0.037893121   -2.5144253   0.92770327   461331 
  385000   0.80882793   -2.5120623   -2.5120623   -1.5868888  0.042937305   -2.5120623    0.9251735   461331 
  386000   0.80985634    -2.513552    -2.513552   -1.5872022   0.03899922    -2.513552   0.92634985   461331 
  387000   0.80971516   -2.5133134   -2.5133134    -1.587125  0.045297881   -2.5133134   0.92618837   461331 
  388000   0.80989055   -2.5133433   -2.5133433   -1.5869543  0.042688153   -2.5133433   0.92638897   461331 
  389000   0.80991762   -2.5128103   -2.5128103   -1.5863904  0.037380235   -2.5128103   0.92641995   461331 
  390000   0.80977346   -2.5129852   -2.5129852   -1.5867301  0.037372507   -2.5129852   0.92625505   461331 
  391000   0.80835138   -2.5126377   -2.5126377   -1.5880093  0.036625779   -2.5126377    0.9246284   461331 
  392000   0.80829801   -2.5126399   -2.5126399   -1.5880725  0.036141689   -2.5126399   0.92456736   461331 
  393000   0.80746029   -2.5128346   -2.5128346   -1.5892255  0.041804731   -2.5128346   0.92360913   461331 
  394000   0.80701307   -2.5126889   -2.5126889   -1.5895913    0.0336724   -2.5126889   0.92309759   461331 
  395000    0.8061759   -2.5121723   -2.5121723   -1.5900323  0.028984095   -2.5121723      0.92214   461331 
  396000    0.8072918   -2.5124738   -2.5124738   -1.5890574  0.034163019   -2.5124738   0.92341641   461331 
  397000   0.80765919   -2.5118049   -2.5118049   -1.5879682  0.036464374   -2.5118049   0.92383665   461331 
  398000   0.80812526   -2.5116594   -2.5116594   -1.5872897  0.033933332   -2.5116594   0.92436976   461331 
  399000   0.80793918   -2.5113068   -2.5113068   -1.5871499  0.033470499   -2.5113068   0.92415691   461331 
  400000   0.80754799   -2.5111726   -2.5111726   -1.5874632  0.040755831   -2.5111726   0.92370945   461331 
  401000    0.8077544   -2.5115945   -2.5115945   -1.5876489  0.036990181   -2.5115945   0.92394556   461331 
  402000   0.80807123   -2.5121988   -2.5121988   -1.5878909  0.042751293   -2.5121988   0.92430796   461331 
  403000   0.80918104   -2.5138189   -2.5138189   -1.5882415  0.038799973   -2.5138189   0.92557741   461331 
  404000   0.80894271   -2.5137314   -2.5137314   -1.5884266  0.037210442   -2.5137314    0.9253048   461331 
  405000   0.80868669   -2.5139742   -2.5139742   -1.5889622  0.042338262   -2.5139742   0.92501195   461331 
  406000   0.80862947   -2.5142696   -2.5142696   -1.5893231  0.036007784   -2.5142696    0.9249465   461331 
  407000   0.80730352   -2.5125999   -2.5125999   -1.5891701  0.032944385   -2.5125999   0.92342982   461331 
  408000   0.81020848   -2.5148711   -2.5148711   -1.5881185  0.032015619   -2.5148711   0.92675264   461331 
  409000   0.80693687   -2.5125452   -2.5125452   -1.5895348  0.038761098   -2.5125452   0.92301043   461331 
  410000   0.80783776   -2.5136045   -2.5136045   -1.5895636  0.039565495   -2.5136045   0.92404091   461331 
  411000   0.80850773   -2.5141098   -2.5141098   -1.5893025  0.041719024   -2.5141098   0.92480725   461331 
  412000   0.80849504   -2.5150529   -2.5150529   -1.5902602  0.041369642   -2.5150529   0.92479274   461331 
  413000   0.80824759   -2.5146285   -2.5146285   -1.5901188  0.035139883   -2.5146285   0.92450968   461331 
  414000   0.80784847   -2.5144165   -2.5144165   -1.5903633  0.039810723   -2.5144165   0.92405316   461331 
  415000   0.80755183   -2.5142505   -2.5142505   -1.5905366   0.04132784   -2.5142505   0.92371384   461331 
  416000   0.80664059   -2.5133044   -2.5133044   -1.5906329  0.034214421   -2.5133044   0.92267153   461331 
  417000   0.80775506   -2.5142625   -2.5142625   -1.5903162  0.035643145   -2.5142625   0.92394631   461331 
  418000   0.80609694   -2.5135413   -2.5135413   -1.5914917  0.040355011   -2.5135413   0.92204968   461331 
  419000   0.80762589   -2.5141516   -2.5141516   -1.5903531  0.042786105   -2.5141516   0.92379856   461331 
  420000   0.81023443   -2.5165107   -2.5165107   -1.5897283   0.03257668   -2.5165107   0.92678232   461331 
  421000   0.80769971    -2.514584    -2.514584    -1.590701  0.044223643    -2.514584     0.923883   461331 
  422000   0.80727539   -2.5139255   -2.5139255   -1.5905278  0.043908726   -2.5139255   0.92339764   461331 
  423000   0.80728217   -2.5132617   -2.5132617   -1.5898563  0.034019846   -2.5132617   0.92340539   461331 
  424000   0.80890833   -2.5154028   -2.5154028   -1.5901373  0.033664179   -2.5154028   0.92526547   461331 
  425000   0.80576372   -2.5133704   -2.5133704   -1.5917019  0.031035674   -2.5133704   0.92166853   461331 
  426000   0.80638288   -2.5141825   -2.5141825   -1.5918057  0.035345757   -2.5141825   0.92237675   461331 
  427000   0.80722949   -2.5147625   -2.5147625   -1.5914173  0.033089286   -2.5147625   0.92334513   461331 
  428000   0.80816327   -2.5151819   -2.5151819   -1.5907686  0.029799218   -2.5151819   0.92441324   461331 
  429000   0.80696412   -2.5133079   -2.5133079   -1.5902663  0.038330602   -2.5133079    0.9230416   461331 
  430000   0.80867776   -2.5147058   -2.5147058   -1.5897041  0.039256099   -2.5147058   0.92500173   461331 
  431000   0.80963614   -2.5150608   -2.5150608   -1.5889628  0.037366939   -2.5150608   0.92609797   461331 
  432000   0.80889675   -2.5144819   -2.5144819   -1.5892297  0.033232901   -2.5144819   0.92525223   461331 
  433000   0.80960235   -2.5155261   -2.5155261   -1.5894668  0.045603002   -2.5155261   0.92605932   461331 
  434000   0.80818979   -2.5139542   -2.5139542   -1.5895106   0.03494045   -2.5139542   0.92444358   461331 
  435000   0.80904095   -2.5154818   -2.5154818   -1.5900646  0.034799514   -2.5154818   0.92541717   461331 
  436000   0.80768851   -2.5132486   -2.5132486   -1.5893784  0.041498398   -2.5132486   0.92387019   461331 
  437000   0.80726656   -2.5141267   -2.5141267   -1.5907391  0.038693937   -2.5141267   0.92338754   461331 
  438000   0.80662851   -2.5138984   -2.5138984   -1.5912406  0.037487975   -2.5138984   0.92265771   461331 
  439000   0.80666143   -2.5136544   -2.5136544    -1.590959  0.034568821   -2.5136544   0.92269536   461331 
  440000    0.8066837   -2.5131685   -2.5131685   -1.5904477   0.04006678   -2.5131685   0.92272084   461331 
  441000   0.80618815   -2.5142388   -2.5142388   -1.5920848  0.033348402   -2.5142388   0.92215401   461331 
  442000   0.80651497   -2.5141717   -2.5141717   -1.5916438  0.026810404   -2.5141717   0.92252784   461331 
  443000    0.8067653   -2.5148743   -2.5148743   -1.5920601  0.030125209   -2.5148743   0.92281418   461331 
  444000   0.80778332   -2.5151097   -2.5151097   -1.5911311  0.036041851   -2.5151097   0.92397863   461331 
  445000   0.80834337   -2.5148305   -2.5148305   -1.5902113  0.039161241   -2.5148305   0.92461924   461331 
  446000   0.80791079    -2.515757    -2.515757   -1.5916325  0.033800634    -2.515757   0.92412445   461331 
  447000   0.80864009   -2.5168974   -2.5168974   -1.5919388   0.04060393   -2.5168974   0.92495865   461331 
  448000   0.80809843   -2.5175142   -2.5175142   -1.5931751  0.039626679   -2.5175142   0.92433907   461331 
  449000   0.80928961    -2.517316    -2.517316   -1.5916144  0.035621426    -2.517316    0.9257016   461331 
  450000   0.80808822   -2.5159358   -2.5159358   -1.5916084  0.039506449   -2.5159358   0.92432739   461331 
  451000   0.80800437     -2.51608     -2.51608   -1.5918485  0.032020528     -2.51608   0.92423148   461331 
  452000   0.80706219   -2.5163889   -2.5163889   -1.5932351   0.03889063   -2.5163889   0.92315378   461331 
  453000   0.80892269   -2.5172466   -2.5172466   -1.5919647  0.036903374   -2.5172466    0.9252819   461331 
  454000    0.8082323   -2.5166638   -2.5166638   -1.5921716   0.03787243   -2.5166638    0.9244922   461331 
  455000   0.80861326   -2.5169183   -2.5169183   -1.5919903  0.039193915   -2.5169183   0.92492796   461331 
  456000   0.80779494   -2.5164862   -2.5164862   -1.5924943  0.030915581   -2.5164862   0.92399193   461331 
  457000    0.8077043   -2.5165272   -2.5165272   -1.5926389  0.038362273   -2.5165272   0.92388825   461331 
  458000   0.80735509   -2.5159079   -2.5159079   -1.5924191  0.038355648   -2.5159079   0.92348881   461331 
  459000   0.80862012   -2.5165884   -2.5165884   -1.5916526  0.037234241   -2.5165884    0.9249358   461331 
  460000   0.80812146   -2.5157751   -2.5157751   -1.5914097  0.035904652   -2.5157751   0.92436541   461331 
  461000   0.80822832   -2.5163393   -2.5163393   -1.5918517   0.03763256   -2.5163393   0.92448764   461331 
  462000   0.80981746   -2.5176248   -2.5176248   -1.5913194  0.034447974   -2.5176248   0.92630537   461331 
  463000   0.80797411   -2.5154713   -2.5154713   -1.5912745  0.037846996   -2.5154713   0.92419687   461331 
  464000    0.8065605   -2.5142039   -2.5142039    -1.591624  0.038082985   -2.5142039   0.92257992   461331 
  465000   0.80755754   -2.5149267   -2.5149267   -1.5912063  0.030279415   -2.5149267   0.92372038   461331 
  466000   0.80623445   -2.5130186   -2.5130186   -1.5908116  0.034583722   -2.5130186   0.92220697   461331 
  467000    0.8083436   -2.5153455   -2.5153455    -1.590726  0.029301189   -2.5153455   0.92461951   461331 
  468000   0.80780689   -2.5144707   -2.5144707   -1.5904651  0.038852359   -2.5144707   0.92400559   461331 
  469000   0.80798024   -2.5150163   -2.5150163   -1.5908124  0.030319045   -2.5150163   0.92420388   461331 
  470000   0.80741142   -2.5145545   -2.5145545   -1.5910013  0.031831996   -2.5145545   0.92355324   461331 
  471000   0.80734827   -2.5131409   -2.5131409   -1.5896599  0.034534308   -2.5131409     0.923481   461331 
  472000   0.80754662   -2.5138493   -2.5138493   -1.5901414  0.038695109   -2.5138493   0.92370789   461331 
  473000   0.80733276   -2.5141109   -2.5141109   -1.5906476  0.030205912   -2.5141109   0.92346327   461331 
  474000   0.80814128   -2.5143362   -2.5143362   -1.5899481  0.037977081   -2.5143362   0.92438809   461331 
  475000   0.80817853   -2.5137739   -2.5137739   -1.5893432  0.031678817   -2.5137739    0.9244307   461331 
  476000   0.80863541   -2.5140426   -2.5140426   -1.5890893  0.033052358   -2.5140426    0.9249533   461331 
  477000   0.80892541     -2.51362     -2.51362    -1.588335  0.042070485     -2.51362   0.92528501   461331 
  478000   0.80806702    -2.514146    -2.514146   -1.5898428  0.035129448    -2.514146   0.92430314   461331 
  479000   0.80777374   -2.5139455   -2.5139455   -1.5899778  0.039790381   -2.5139455   0.92396767   461331 
  480000    0.8079747   -2.5142688   -2.5142688   -1.5900712  0.043881289   -2.5142688   0.92419754   461331 
  481000   0.80946381    -2.514976    -2.514976   -1.5890752  0.037170562    -2.514976   0.92590085   461331 
  482000   0.80789936   -2.5143841   -2.5143841   -1.5902727  0.037636151   -2.5143841   0.92411137   461331 
  483000    0.8078638   -2.5145989   -2.5145989   -1.5905282  0.037367835   -2.5145989   0.92407069   461331 
  484000   0.80758954   -2.5145228   -2.5145228   -1.5907658  0.038437911   -2.5145228   0.92375699   461331 
  485000   0.80766779   -2.5147891   -2.5147891   -1.5909426  0.032075617   -2.5147891   0.92384649   461331 
  486000    0.8072115   -2.5149756   -2.5149756    -1.591651  0.035881108   -2.5149756   0.92332456   461331 
  487000   0.80715014   -2.5151289   -2.5151289   -1.5918745  0.032473905   -2.5151289   0.92325438   461331 
  488000   0.80684179   -2.5129611   -2.5129611   -1.5900595  0.041448175   -2.5129611   0.92290167   461331 
  489000   0.80844398   -2.5142838   -2.5142838   -1.5895495  0.038008754   -2.5142838   0.92473433   461331 
  490000   0.80731705   -2.5143794   -2.5143794   -1.5909341  0.036557922   -2.5143794   0.92344529   461331 
  491000   0.80651793    -2.512757    -2.512757   -1.5902258  0.039004959    -2.512757   0.92253123   461331 
  492000   0.80904354   -2.5150966   -2.5150966   -1.5896764  0.035057942   -2.5150966   0.92542013   461331 
  493000   0.80775359   -2.5146177   -2.5146177   -1.5906731  0.033846877   -2.5146177   0.92394463   461331 
  494000   0.80812115   -2.5141139   -2.5141139   -1.5897489  0.032606396   -2.5141139   0.92436507   461331 
  495000   0.80758234   -2.5152218   -2.5152218   -1.5914731  0.031118718   -2.5152218   0.92374875   461331 
  496000   0.80617395   -2.5141135   -2.5141135   -1.5919757  0.032871248   -2.5141135   0.92213776   461331 
  497000   0.80803812    -2.515574    -2.515574   -1.5913039  0.035200161    -2.515574   0.92427009   461331 
  498000   0.80821459   -2.5161245   -2.5161245   -1.5916526  0.035649957   -2.5161245   0.92447195   461331 
  499000   0.80679487   -2.5151364   -2.5151364   -1.5922884  0.032864344   -2.5151364     0.922848   461331 
  500000   0.80672011   -2.5148992   -2.5148992   -1.5921367  0.037710156   -2.5148992   0.92276248   461331 
  501000   0.80871041   -2.5164172   -2.5164172   -1.5913781  0.035293684   -2.5164172   0.92503908   461331 
  502000   0.80817702   -2.5159054   -2.5159054   -1.5914765  0.041270537   -2.5159054   0.92442897   461331 
  503000   0.80769742   -2.5163315   -2.5163315   -1.5924511  0.038802455   -2.5163315   0.92388038   461331 
  504000   0.80808909   -2.5178645   -2.5178645   -1.5935361  0.031484864   -2.5178645   0.92432839   461331 
  505000   0.80692849   -2.5178242   -2.5178242   -1.5948234  0.037177387   -2.5178242   0.92300084   461331 
  506000   0.80665262   -2.5182967   -2.5182967   -1.5956114   0.03460157   -2.5182967   0.92268529   461331 
  507000   0.80578744   -2.5180307   -2.5180307   -1.5963351   0.03046594   -2.5180307   0.92169566   461331 
  508000   0.80680002   -2.5189136   -2.5189136   -1.5960597  0.034602769   -2.5189136   0.92285389   461331 
  509000   0.80799511   -2.5213181   -2.5213181   -1.5970972  0.029300416   -2.5213181   0.92422089   461331 
  510000   0.80747937   -2.5197804   -2.5197804   -1.5961495  0.035953458   -2.5197804   0.92363097   461331 
  511000   0.80729818   -2.5192627   -2.5192627    -1.595839  0.034976237   -2.5192627   0.92342371   461331 
  512000   0.80655389   -2.5184097   -2.5184097   -1.5958373  0.039414198   -2.5184097   0.92257235   461331 
  513000   0.80784642   -2.5199708   -2.5199708   -1.5959199  0.038524202   -2.5199708   0.92405081   461331 
  514000   0.80773785   -2.5192064   -2.5192064   -1.5952798  0.034420815   -2.5192064   0.92392662   461331 
  515000   0.80639631   -2.5194053   -2.5194053   -1.5970132  0.043238355   -2.5194053   0.92239211   461331 
  516000   0.80578729   -2.5191393   -2.5191393   -1.5974438  0.036762131   -2.5191393   0.92169548   461331 
  517000   0.80749839   -2.5211137   -2.5211137    -1.597461  0.035043643   -2.5211137   0.92365272   461331 
  518000   0.80664161   -2.5201935   -2.5201935   -1.5975208  0.036397953   -2.5201935   0.92267269   461331 
  519000    0.8066243   -2.5193166   -2.5193166   -1.5966637  0.041521619   -2.5193166    0.9226529   461331 
  520000   0.80782666   -2.5204654   -2.5204654   -1.5964371  0.035215148   -2.5204654   0.92402821   461331 
  521000   0.80763303   -2.5187017   -2.5187017   -1.5948949  0.041793532   -2.5187017   0.92380673   461331 
  522000   0.80963951    -2.520668    -2.520668   -1.5945661  0.039458765    -2.520668   0.92610182   461331 
  523000   0.80991926   -2.5207287   -2.5207287   -1.5943069  0.034614126   -2.5207287   0.92642182   461331 
  524000    0.8085209   -2.5202234   -2.5202234   -1.5954011  0.039780708   -2.5202234   0.92482231   461331 
  525000   0.80734666   -2.5191925   -2.5191925   -1.5957133  0.035984846   -2.5191925   0.92347917   461331 
  526000   0.80775744   -2.5194774   -2.5194774   -1.5955283  0.041637703   -2.5194774   0.92394903   461331 
  527000   0.80707136   -2.5189719   -2.5189719   -1.5958076  0.041331345   -2.5189719   0.92316426   461331 
  528000    0.8065629   -2.5184931   -2.5184931   -1.5959105  0.033451961   -2.5184931   0.92258266   461331 
  529000   0.80583196   -2.5171557   -2.5171557   -1.5954091  0.030325883   -2.5171557   0.92174658   461331 
  530000   0.80672809   -2.5186659   -2.5186659   -1.5958943  0.026219212   -2.5186659   0.92277161   461331 
  531000   0.80652349   -2.5186221   -2.5186221   -1.5960845  0.026587519   -2.5186221   0.92253759   461331 
  532000   0.80721259   -2.5184508   -2.5184508   -1.5951249  0.037412182   -2.5184508   0.92332581   461331 
  533000   0.80547191   -2.5158664   -2.5158664   -1.5945317  0.034037636   -2.5158664   0.92133474   461331 
  534000    0.8077578   -2.5180919   -2.5180919   -1.5941424  0.037568508   -2.5180919   0.92394945   461331 
  535000   0.80794786   -2.5175501   -2.5175501   -1.5933832  0.038223186   -2.5175501   0.92416684   461331 
  536000   0.80668568   -2.5163172   -2.5163172   -1.5935941  0.037932037   -2.5163172    0.9227231   461331 
  537000   0.80658396   -2.5172627   -2.5172627    -1.594656  0.036270367   -2.5172627   0.92260675   461331 
  538000   0.80631813   -2.5174976   -2.5174976   -1.5951949   0.03172928   -2.5174976   0.92230269   461331 
  539000   0.80646357   -2.5172343   -2.5172343   -1.5947652  0.037651429   -2.5172343   0.92246905   461331 
  540000   0.80637396   -2.5166119   -2.5166119   -1.5942454   0.03660613   -2.5166119   0.92236655   461331 
  541000   0.80682936   -2.5162101   -2.5162101   -1.5933226  0.039345081   -2.5162101   0.92288746   461331 
  542000    0.8072889   -2.5173667   -2.5173667   -1.5939536  0.038455804   -2.5173667    0.9234131   461331 
  543000   0.80880492    -2.518412    -2.518412   -1.5932648  0.039972868    -2.518412   0.92514719   461331 
  544000    0.8072504   -2.5173978   -2.5173978   -1.5940287  0.036371127   -2.5173978   0.92336906   461331 
  545000   0.81019067   -2.5192522   -2.5192522   -1.5925199  0.038054196   -2.5192522   0.92673227   461331 
  546000    0.8094929   -2.5185969   -2.5185969   -1.5926628  0.039365033   -2.5185969   0.92593413   461331 
  547000   0.80861186   -2.5174999   -2.5174999   -1.5925735    0.0411637   -2.5174999   0.92492636   461331 
  548000   0.80821502   -2.5185563   -2.5185563   -1.5940838  0.035959208   -2.5185563   0.92447243   461331 
  549000   0.80690418   -2.5171123   -2.5171123   -1.5941393  0.037726487   -2.5171123   0.92297303   461331 
  550000   0.80702805   -2.5172269   -2.5172269   -1.5941122  0.039386708   -2.5172269   0.92311472   461331 
  551000   0.80618324   -2.5170201   -2.5170201   -1.5948717  0.031378352   -2.5170201   0.92214839   461331 
  552000   0.80573998   -2.5163016   -2.5163016   -1.5946602  0.037736704   -2.5163016   0.92164137   461331 
  553000   0.80639956   -2.5157744   -2.5157744   -1.5933785    0.0324667   -2.5157744   0.92239583   461331 
  554000   0.80618127   -2.5161374   -2.5161374   -1.5939912  0.034901439   -2.5161374   0.92214614   461331 
  555000   0.80596426   -2.5158035   -2.5158035   -1.5939056  0.030614129   -2.5158035   0.92189791   461331 
  556000   0.80722029   -2.5175214   -2.5175214   -1.5941867  0.030179383   -2.5175214   0.92333462   461331 
  557000   0.80549549   -2.5160502   -2.5160502   -1.5946885  0.031615192   -2.5160502   0.92136172   461331 
  558000   0.80620881   -2.5165924   -2.5165924   -1.5944147  0.031664561   -2.5165924   0.92217765   461331 
  559000   0.80684206   -2.5174247   -2.5174247   -1.5945228   0.02911339   -2.5174247   0.92290199   461331 
  560000   0.80688237   -2.5173583   -2.5173583   -1.5944102   0.03977054   -2.5173583   0.92294809   461331 
  561000   0.80732693   -2.5180163   -2.5180163   -1.5945597  0.035773901   -2.5180163    0.9234566   461331 
  562000   0.80845989   -2.5191676   -2.5191676    -1.594415  0.036464271   -2.5191676   0.92475253   461331 
  563000   0.80780001    -2.518267    -2.518267   -1.5942692  0.037583479    -2.518267   0.92399772   461331 
  564000   0.80847461    -2.518025    -2.518025   -1.5932556  0.037896243    -2.518025   0.92476937   461331 
  565000   0.80880734   -2.5190129   -2.5190129   -1.5938629  0.037663917   -2.5190129   0.92514996   461331 
  566000   0.80934634   -2.5197869   -2.5197869   -1.5940204  0.038540958   -2.5197869   0.92576649   461331 
  567000   0.80954476   -2.5195602   -2.5195602   -1.5935668  0.045148569   -2.5195602   0.92599345   461331 
  568000   0.80893161    -2.520086    -2.520086   -1.5947939  0.035745371    -2.520086    0.9252921   461331 
  569000   0.80816287   -2.5185267   -2.5185267    -1.594114  0.036471839   -2.5185267   0.92441279   461331 
  570000   0.80646153   -2.5175126   -2.5175126   -1.5950459  0.036530343   -2.5175126   0.92246672   461331 
  571000   0.80670129    -2.517295    -2.517295   -1.5945541  0.036610615    -2.517295   0.92274096   461331 
  572000   0.80645177   -2.5178265   -2.5178265    -1.595371  0.038280137   -2.5178265   0.92245555   461331 
  573000   0.80730296   -2.5184425   -2.5184425   -1.5950133   0.03214822   -2.5184425   0.92342918   461331 
  574000   0.80789795   -2.5186903   -2.5186903   -1.5945806  0.031699633   -2.5186903   0.92410975   461331 
  575000   0.80692143   -2.5167252   -2.5167252   -1.5937324  0.032383144   -2.5167252   0.92299277   461331 
  576000   0.80663274   -2.5158233   -2.5158233   -1.5931608  0.033184333   -2.5158233   0.92266255   461331 
  577000   0.80651264   -2.5158266   -2.5158266   -1.5933015  0.036595918   -2.5158266   0.92252518   461331 
  578000     0.807176   -2.5165078   -2.5165078   -1.5932238  0.030272952   -2.5165078   0.92328395   461331 
  579000   0.80669716   -2.5162495   -2.5162495   -1.5935133   0.03744871   -2.5162495   0.92273624   461331 
  580000   0.80803905   -2.5172546   -2.5172546   -1.5929834  0.034508052   -2.5172546   0.92427115   461331 
  581000   0.80747588   -2.5170676   -2.5170676   -1.5934406  0.038821214   -2.5170676   0.92362697   461331 
  582000   0.80821222   -2.5174283   -2.5174283   -1.5929591   0.03840151   -2.5174283   0.92446923   461331 
  583000   0.80745805   -2.5177958   -2.5177958   -1.5941892  0.032359918   -2.5177958   0.92360657   461331 
  584000   0.80775467   -2.5186078   -2.5186078    -1.594662    0.0336825   -2.5186078   0.92394587   461331 
  585000   0.80736437   -2.5171479   -2.5171479   -1.5936485  0.033949795   -2.5171479   0.92349942   461331 
  586000   0.80661535   -2.5171827   -2.5171827     -1.59454  0.032208033   -2.5171827   0.92264266   461331 
  587000   0.80688489   -2.5178444   -2.5178444   -1.5948934  0.035842436   -2.5178444   0.92295097   461331 
  588000   0.80764101   -2.5193229   -2.5193229    -1.595507  0.030674616   -2.5193229   0.92381586   461331 
  589000   0.80666841   -2.5185085   -2.5185085   -1.5958052  0.033958797   -2.5185085   0.92270335   461331 
  590000   0.80649991   -2.5189977   -2.5189977    -1.596487  0.035782368   -2.5189977   0.92251062   461331 
  591000   0.80614275   -2.5177383   -2.5177383   -1.5956362  0.041883476   -2.5177383   0.92210208   461331 
  592000   0.80781578   -2.5194989   -2.5194989   -1.5954831  0.038292265   -2.5194989   0.92401577   461331 
  593000   0.80826867   -2.5206879   -2.5206879   -1.5961541   0.03356078   -2.5206879    0.9245338   461331 
  594000   0.80920099    -2.521081    -2.521081   -1.5954807  0.035245101    -2.521081   0.92560023   461331 
  595000   0.80808238   -2.5210418   -2.5210418   -1.5967211  0.039510404   -2.5210418   0.92432071   461331 
  596000   0.80798662   -2.5207058   -2.5207058   -1.5964947  0.034395054   -2.5207058   0.92421118   461331 
  597000   0.80772826   -2.5209167   -2.5209167    -1.597001  0.040943197   -2.5209167   0.92391566   461331 
  598000   0.80755657   -2.5197251   -2.5197251   -1.5960059  0.038718412   -2.5197251   0.92371927   461331 
  599000    0.8076154   -2.5200889   -2.5200889   -1.5963024   0.03769939   -2.5200889   0.92378657   461331 
  600000   0.80775143   -2.5201453   -2.5201453   -1.5962031  0.034442108   -2.5201453   0.92394216   461331 
  601000   0.80816943   -2.5209812   -2.5209812   -1.5965609  0.037110366   -2.5209812   0.92442028   461331 
  602000   0.80746905   -2.5204698   -2.5204698   -1.5968507  0.040524536   -2.5204698   0.92361916   461331 
  603000   0.80846547   -2.5209485   -2.5209485   -1.5961896  0.039063534   -2.5209485   0.92475891   461331 
  604000   0.80761072   -2.5202114   -2.5202114   -1.5964302  0.039021773   -2.5202114   0.92378121   461331 
  605000   0.80853303   -2.5214834   -2.5214834   -1.5966472  0.036785891   -2.5214834   0.92483618   461331 
  606000   0.80693186   -2.5204301   -2.5204301   -1.5974254  0.029084369   -2.5204301   0.92300469   461331 
  607000   0.80641222   -2.5185359   -2.5185359   -1.5961255  0.037949709   -2.5185359   0.92241031   461331 
  608000   0.80561416    -2.518819    -2.518819   -1.5973215  0.037486882    -2.518819   0.92149746   461331 
  609000   0.80610861   -2.5192803   -2.5192803   -1.5972173  0.032166559   -2.5192803   0.92206303   461331 
  610000    0.8066233   -2.5195038   -2.5195038    -1.596852  0.028793261   -2.5195038   0.92265175   461331 
  611000   0.80531736   -2.5180948   -2.5180948   -1.5969368  0.036180737   -2.5180948   0.92115796   461331 
  612000    0.8062204   -2.5182857   -2.5182857   -1.5960948  0.041181651   -2.5182857    0.9221909   461331 
  613000   0.80799075   -2.5199671   -2.5199671   -1.5957512  0.032306551   -2.5199671    0.9242159   461331 
  614000   0.80709298   -2.5193085   -2.5193085   -1.5961195  0.035682455   -2.5193085     0.923189   461331 
  615000   0.80659955   -2.5181998   -2.5181998   -1.5955752  0.035171963   -2.5181998   0.92262458   461331 
  616000   0.80755237   -2.5190665   -2.5190665    -1.595352  0.035035947   -2.5190665   0.92371446   461331 
  617000   0.80582314   -2.5178932   -2.5178932   -1.5961567  0.036186552   -2.5178932   0.92173649   461331 
  618000    0.8077231   -2.5196312   -2.5196312   -1.5957214  0.035048441   -2.5196312   0.92390976   461331 
  619000   0.80806113   -2.5196651   -2.5196651   -1.5953687  0.029676683   -2.5196651   0.92429641   461331 
  620000   0.80786052   -2.5185112   -2.5185112   -1.5944443  0.037384831   -2.5185112   0.92406694   461331 
  621000   0.80668995   -2.5183131   -2.5183131   -1.5955851  0.040669562   -2.5183131   0.92272799   461331 
  622000   0.80825907   -2.5198953   -2.5198953   -1.5953725  0.040867392   -2.5198953   0.92452282   461331 
  623000    0.8085393   -2.5205716   -2.5205716   -1.5957283  0.034631063   -2.5205716   0.92484336   461331 
  624000   0.80792991   -2.5201298   -2.5201298   -1.5959834  0.037650197   -2.5201298   0.92414631   461331 
  625000   0.80871307    -2.520744    -2.520744   -1.5957019  0.037200107    -2.520744   0.92504213   461331 
  626000   0.80819252   -2.5207301   -2.5207301   -1.5962834  0.032449724   -2.5207301   0.92444669   461331 
  627000   0.80871733   -2.5221349   -2.5221349   -1.5970879  0.033443159   -2.5221349     0.925047   461331 
  628000   0.80681247   -2.5202218   -2.5202218   -1.5973537  0.034884183   -2.5202218   0.92286814   461331 
  629000   0.80760409   -2.5211095   -2.5211095   -1.5973358  0.044133378   -2.5211095   0.92377362   461331 
  630000   0.80716414   -2.5213794   -2.5213794    -1.598109  0.033508189   -2.5213794   0.92327039   461331 
  631000   0.80686512   -2.5203579   -2.5203579   -1.5974295  0.035017326   -2.5203579   0.92292835   461331 
  632000   0.80801203   -2.5212139   -2.5212139   -1.5969736  0.028669117   -2.5212139   0.92424024   461331 
  633000   0.80791837   -2.5212046   -2.5212046   -1.5970715  0.030032806   -2.5212046   0.92413311   461331 
  634000   0.80711103   -2.5210911   -2.5210911   -1.5978814  0.037422957   -2.5210911   0.92320964   461331 
  635000    0.8072242   -2.5213691   -2.5213691   -1.5980301  0.039539648   -2.5213691   0.92333909   461331 
  636000   0.80770971   -2.5210198   -2.5210198   -1.5971253  0.036564827   -2.5210198   0.92389444   461331 
  637000   0.80675855   -2.5212436   -2.5212436   -1.5984372  0.034584531   -2.5212436   0.92280646   461331 
  638000   0.80737159   -2.5214798   -2.5214798   -1.5979721   0.04061762   -2.5214798   0.92350768   461331 
  639000   0.80759157   -2.5215117   -2.5215117   -1.5977524   0.04325291   -2.5215117    0.9237593   461331 
  640000   0.80753087   -2.5213467   -2.5213467   -1.5976568  0.038553533   -2.5213467   0.92368987   461331 
  641000   0.80739504   -2.5214653   -2.5214653   -1.5979307  0.030895933   -2.5214653    0.9235345   461331 
  642000   0.80784433   -2.5210071   -2.5210071   -1.5969587  0.037875476   -2.5210071   0.92404842   461331 
  643000   0.80806021   -2.5218344   -2.5218344   -1.5975391  0.041465276   -2.5218344   0.92429535   461331 
  644000   0.80805818   -2.5219407   -2.5219407   -1.5976476  0.036197123   -2.5219407   0.92429303   461331 
[...]
 9832000   0.80385086   -2.5508165   -2.5508165    -1.631336  0.032475883   -2.5508165   0.91948051   461331 
 9833000   0.80333494   -2.5498681   -2.5498681   -1.6309777  0.036224216   -2.5498681   0.91889038   461331 
 9834000   0.80442461   -2.5509574   -2.5509574   -1.6308206  0.030400672   -2.5509574   0.92013679   461331 
 9835000   0.80358632   -2.5499889   -2.5499889    -1.630811  0.034785485   -2.5499889   0.91917792   461331 
 9836000   0.80320667   -2.5494755   -2.5494755   -1.6307318  0.035593393   -2.5494755   0.91874366   461331 
 9837000   0.80343439    -2.551163    -2.551163   -1.6321589  0.033557396    -2.551163   0.91900413   461331 
 9838000   0.80237007   -2.5499811   -2.5499811   -1.6321944  0.035255683   -2.5499811   0.91778672   461331 
 9839000   0.80279442   -2.5511563   -2.5511563   -1.6328842  0.034187935   -2.5511563   0.91827211   461331 
 9840000   0.80147671   -2.5501021   -2.5501021   -1.6333373  0.029837873   -2.5501021   0.91676486   461331 
 9841000   0.80067789   -2.5489533   -2.5489533   -1.6331021  0.030476595   -2.5489533   0.91585113   461331 
 9842000   0.80282838   -2.5509369   -2.5509369   -1.6326259  0.030554256   -2.5509369   0.91831095   461331 
 9843000   0.80267594   -2.5510522   -2.5510522   -1.6329156  0.038362432   -2.5510522   0.91813658   461331 
 9844000   0.80268088   -2.5517924   -2.5517924   -1.6336501  0.027988563   -2.5517924   0.91814224   461331 
 9845000   0.80374361   -2.5527371   -2.5527371   -1.6333793  0.031501454   -2.5527371   0.91935783   461331 
 9846000   0.80395319   -2.5528028   -2.5528028   -1.6332053  0.034016163   -2.5528028   0.91959756   461331 
 9847000   0.80396592   -2.5534616   -2.5534616   -1.6338495  0.033669033   -2.5534616   0.91961212   461331 
 9848000   0.80306646   -2.5533791   -2.5533791   -1.6347958  0.037094863   -2.5533791   0.91858328   461331 
 9849000   0.80224974   -2.5532705   -2.5532705   -1.6356214  0.038462353   -2.5532705   0.91764908   461331 
 9850000   0.80236742   -2.5529195   -2.5529195   -1.6351358  0.035339823   -2.5529195   0.91778368   461331 
 9851000   0.80208702   -2.5522715   -2.5522715   -1.6348085  0.033229131   -2.5522715   0.91746296   461331 
 9852000   0.80148849   -2.5520368   -2.5520368   -1.6352585  0.037973537   -2.5520368   0.91677833   461331 
 9853000   0.80304476   -2.5533937   -2.5533937   -1.6348352  0.036210246   -2.5533937   0.91855846   461331 
 9854000   0.80382953   -2.5550608   -2.5550608   -1.6356047  0.031208604   -2.5550608   0.91945611   461331 
 9855000   0.80350506   -2.5538956   -2.5538956   -1.6348106  0.032788722   -2.5538956   0.91908497   461331 
 9856000   0.80311689   -2.5526533   -2.5526533   -1.6340123  0.037581674   -2.5526533   0.91864097   461331 
 9857000   0.80432318   -2.5539237   -2.5539237   -1.6339029  0.041865225   -2.5539237   0.92002077   461331 
 9858000   0.80266543   -2.5518104   -2.5518104   -1.6336859  0.038320947   -2.5518104   0.91812456   461331 
 9859000   0.80219897   -2.5521829   -2.5521829   -1.6345919  0.031869203   -2.5521829   0.91759101   461331 
 9860000   0.80141466   -2.5516996   -2.5516996   -1.6350057  0.034072841   -2.5516996   0.91669388   461331 
 9861000   0.80215354   -2.5528704   -2.5528704   -1.6353314  0.035069043   -2.5528704   0.91753904   461331 
 9862000   0.80266101   -2.5536817   -2.5536817   -1.6355622  0.032581141   -2.5536817    0.9181195   461331 
 9863000   0.80181026   -2.5535344   -2.5535344    -1.636388  0.035165355   -2.5535344   0.91714638   461331 
 9864000   0.80199615   -2.5530641   -2.5530641   -1.6357051  0.032104089   -2.5530641   0.91735901   461331 
 9865000   0.80304102   -2.5528646   -2.5528646   -1.6343105  0.034948074   -2.5528646   0.91855418   461331 
 9866000   0.80185428   -2.5516548   -2.5516548   -1.6344581  0.038163937   -2.5516548   0.91719673   461331 
 9867000   0.80300867   -2.5530848   -2.5530848   -1.6345676  0.031992616   -2.5530848   0.91851718   461331 
 9868000   0.80296522   -2.5529773   -2.5529773   -1.6345098  0.038664298   -2.5529773   0.91846748   461331 
 9869000   0.80488611   -2.5552783   -2.5552783   -1.6346136  0.030489128   -2.5552783   0.92066467   461331 
 9870000   0.80248758   -2.5525558   -2.5525558   -1.6346347  0.039191276   -2.5525558   0.91792113   461331 
 9871000   0.80205797   -2.5513086   -2.5513086   -1.6338789  0.034070047   -2.5513086   0.91742972   461331 
 9872000   0.80265026   -2.5528498   -2.5528498   -1.6347426  0.038800475   -2.5528498   0.91810721   461331 
 9873000   0.80238693   -2.5527836   -2.5527836   -1.6349776  0.041666181   -2.5527836   0.91780601   461331 
 9874000   0.80217594   -2.5523088   -2.5523088   -1.6347442  0.031950915   -2.5523088   0.91756467   461331 
 9875000     0.802374    -2.553521    -2.553521   -1.6357298  0.030165219    -2.553521   0.91779121   461331 
 9876000   0.80118476   -2.5507495   -2.5507495   -1.6343186  0.031273381   -2.5507495   0.91643091   461331 
 9877000   0.80355521   -2.5532103   -2.5532103   -1.6340679  0.031098012   -2.5532103   0.91914234   461331 
 9878000    0.8029394   -2.5521049   -2.5521049    -1.633667   0.03476083   -2.5521049   0.91843794   461331 
 9879000   0.80275242   -2.5511365   -2.5511365   -1.6329124  0.035227021   -2.5511365   0.91822407   461331 
 9880000   0.80336111   -2.5519372   -2.5519372   -1.6330169  0.032534144   -2.5519372   0.91892031   461331 
 9881000   0.80319048   -2.5511888   -2.5511888   -1.6324636  0.031370844   -2.5511888   0.91872514   461331 
 9882000   0.80352813   -2.5516384   -2.5516384   -1.6325271   0.03951436   -2.5516384   0.91911136   461331 
 9883000   0.80380588   -2.5533125   -2.5533125   -1.6338834  0.032102149   -2.5533125   0.91942906   461331 
 9884000   0.80246932   -2.5521487   -2.5521487   -1.6342484  0.035149353   -2.5521487   0.91790024   461331 
 9885000   0.80195684   -2.5519155   -2.5519155   -1.6346015  0.030085832   -2.5519155   0.91731405   461331 
 9886000   0.80385004   -2.5518704   -2.5518704   -1.6323909  0.027587032   -2.5518704   0.91947958   461331 
 9887000   0.80249729    -2.550576    -2.550576   -1.6326438  0.030101369    -2.550576   0.91793224   461331 
 9888000   0.80273733   -2.5505742   -2.5505742   -1.6323674  0.038496653   -2.5505742   0.91820681   461331 
 9889000   0.80426955   -2.5524662   -2.5524662   -1.6325067  0.039817117   -2.5524662   0.91995943   461331 
 9890000   0.80349247   -2.5521916   -2.5521916    -1.633121  0.032398653   -2.5521916   0.91907057   461331 
 9891000   0.80287827   -2.5516658   -2.5516658   -1.6332977  0.029000939   -2.5516658   0.91836802   461331 
 9892000   0.80198271   -2.5516743   -2.5516743   -1.6343307  0.041821927   -2.5516743   0.91734364   461331 
 9893000   0.80346324   -2.5528489   -2.5528489   -1.6338118  0.030916244   -2.5528489   0.91903713   461331 
 9894000   0.80185614   -2.5510473   -2.5510473   -1.6338484  0.035560767   -2.5510473   0.91719887   461331 
 9895000   0.80163433   -2.5518938   -2.5518938   -1.6349487   0.03291778   -2.5518938   0.91694515   461331 
 9896000   0.80321474   -2.5533563   -2.5533563   -1.6346034  0.032016043   -2.5533563   0.91875289   461331 
 9897000   0.80205474   -2.5518861   -2.5518861   -1.6344601  0.030451624   -2.5518861   0.91742603   461331 
 9898000   0.80269902   -2.5530178   -2.5530178   -1.6348549  0.033684242   -2.5530178   0.91816299   461331 
 9899000   0.80337469   -2.5537801   -2.5537801   -1.6348443  0.034444037   -2.5537801   0.91893585   461331 
 9900000   0.80216083   -2.5527084   -2.5527084    -1.635161  0.036040615   -2.5527084   0.91754738   461331 
 9901000   0.80284676   -2.5539425   -2.5539425   -1.6356105  0.038428415   -2.5539425   0.91833198   461331 
 9902000   0.80281112    -2.554881    -2.554881   -1.6365898  0.028945284    -2.554881   0.91829121   461331 
 9903000   0.80276585   -2.5535493   -2.5535493   -1.6353099  0.033297593   -2.5535493   0.91823943   461331 
 9904000   0.80469947   -2.5555529   -2.5555529   -1.6351017   0.03328291   -2.5555529   0.92045119   461331 
 9905000   0.80213478   -2.5534313   -2.5534313   -1.6359137  0.033929933   -2.5534313   0.91751758   461331 
 9906000   0.80226725   -2.5530897   -2.5530897   -1.6354206  0.030159456   -2.5530897   0.91766911   461331 
 9907000    0.8030224   -2.5541212   -2.5541212   -1.6355883  0.034993421   -2.5541212   0.91853288   461331 
 9908000   0.80187187   -2.5536895   -2.5536895   -1.6364727   0.03487759   -2.5536895   0.91721686   461331 
 9909000   0.80198833   -2.5539386   -2.5539386   -1.6365885  0.033740988   -2.5539386   0.91735007   461331 
 9910000   0.80216988   -2.5544362   -2.5544362   -1.6368785  0.036809424   -2.5544362   0.91755773   461331 
 9911000    0.8030675   -2.5547997   -2.5547997   -1.6362153  0.037833321   -2.5547997   0.91858447   461331 
 9912000   0.80356464   -2.5541129   -2.5541129   -1.6349598   0.02823507   -2.5541129   0.91915312   461331 
 9913000   0.80211657   -2.5527185   -2.5527185   -1.6352218  0.031933651   -2.5527185   0.91749675   461331 
 9914000   0.80198542   -2.5524257   -2.5524257   -1.6350789  0.031703439   -2.5524257   0.91734674   461331 
 9915000   0.80133904   -2.5518854   -2.5518854    -1.635278  0.032316127   -2.5518854   0.91660738   461331 
 9916000   0.80257778    -2.553291    -2.553291   -1.6352667  0.033345588    -2.553291   0.91802431   461331 
 9917000   0.80259333   -2.5530175   -2.5530175   -1.6349754  0.035683673   -2.5530175    0.9180421   461331 
 9918000   0.80273256   -2.5524736   -2.5524736   -1.6342723  0.037709866   -2.5524736   0.91820135   461331 
 9919000   0.80437443   -2.5537928   -2.5537928   -1.6337134  0.033492472   -2.5537928   0.92007939   461331 
 9920000   0.80241313     -2.55159     -2.55159    -1.633754  0.032582618     -2.55159   0.91783597   461331 
 9921000   0.80171361   -2.5504045   -2.5504045   -1.6333686  0.035883409   -2.5504045   0.91703584   461331 
 9922000   0.80040381   -2.5493129   -2.5493129   -1.6337753  0.028403296   -2.5493129   0.91553762   461331 
 9923000   0.80030856   -2.5495795   -2.5495795   -1.6341508  0.037850364   -2.5495795   0.91542867   461331 
 9924000   0.80139234     -2.55133     -2.55133   -1.6346617  0.025652319     -2.55133   0.91666835   461331 
 9925000    0.8012428   -2.5507667   -2.5507667   -1.6342694  0.029386582   -2.5507667    0.9164973   461331 
 9926000   0.80180622   -2.5501202   -2.5501202   -1.6329785  0.035149038   -2.5501202   0.91714177   461331 
 9927000    0.8031407   -2.5510824   -2.5510824   -1.6324142  0.036516837   -2.5510824    0.9186682   461331 
 9928000   0.80262746    -2.550714    -2.550714   -1.6326329  0.036287708    -2.550714   0.91808113   461331 
 9929000   0.80104217   -2.5495201   -2.5495201   -1.6332523  0.040801762   -2.5495201   0.91626781   461331 
 9930000   0.80130061   -2.5505586   -2.5505586   -1.6339952  0.037140391   -2.5505586   0.91656343   461331 
 9931000    0.8018083   -2.5516766   -2.5516766   -1.6345325  0.035951008   -2.5516766   0.91714415   461331 
 9932000   0.80181869   -2.5519571   -2.5519571    -1.634801  0.035783803   -2.5519571   0.91715602   461331 
 9933000    0.8014036   -2.5521735   -2.5521735   -1.6354923  0.034215084   -2.5521735   0.91668123   461331 
 9934000   0.80339729   -2.5547173   -2.5547173   -1.6357556  0.031855134   -2.5547173    0.9189617   461331 
 9935000   0.80219926   -2.5529779   -2.5529779   -1.6353866  0.038099496   -2.5529779   0.91759134   461331 
 9936000    0.8022993   -2.5534973   -2.5534973   -1.6357915  0.034470234   -2.5534973   0.91770577   461331 
 9937000   0.80240806    -2.553452    -2.553452   -1.6356218  0.033855104    -2.553452   0.91783017   461331 
 9938000   0.80271514   -2.5537365   -2.5537365   -1.6355551   0.03540216   -2.5537365   0.91818142   461331 
 9939000   0.80253146   -2.5539705   -2.5539705   -1.6359992   0.03253925   -2.5539705   0.91797133   461331 
 9940000    0.8035005   -2.5545969   -2.5545969   -1.6355172    0.0359201   -2.5545969   0.91907976   461331 
 9941000   0.80246058   -2.5540034   -2.5540034   -1.6361131  0.042580548   -2.5540034   0.91789024   461331 
 9942000   0.80222667   -2.5551365   -2.5551365   -1.6375138  0.034323911   -2.5551365   0.91762269   461331 
 9943000   0.80157458   -2.5542187   -2.5542187   -1.6373419  0.033992556   -2.5542187    0.9168768   461331 
 9944000   0.80239709   -2.5543857   -2.5543857    -1.636568  0.034721764   -2.5543857   0.91781763   461331 
 9945000   0.80337567   -2.5552821   -2.5552821   -1.6363451  0.035724318   -2.5552821   0.91893697   461331 
 9946000   0.80120861   -2.5523549   -2.5523549   -1.6358967  0.040568802   -2.5523549   0.91645819   461331 
 9947000   0.80239567   -2.5537338   -2.5537338   -1.6359178  0.038166744   -2.5537338     0.917816   461331 
 9948000   0.80286897   -2.5545882   -2.5545882   -1.6362309  0.034007977   -2.5545882   0.91835739   461331 
 9949000   0.80233962   -2.5529314   -2.5529314   -1.6351795  0.038620347   -2.5529314   0.91775189   461331 
 9950000    0.8033231   -2.5533807   -2.5533807   -1.6345039  0.030194295   -2.5533807   0.91887683   461331 
 9951000   0.80335222   -2.5532666   -2.5532666   -1.6343565   0.03935903   -2.5532666   0.91891015   461331 
 9952000   0.80311645   -2.5519463   -2.5519463   -1.6333058  0.038471591   -2.5519463   0.91864046   461331 
 9953000   0.80171502   -2.5513635   -2.5513635    -1.634326  0.035048419   -2.5513635   0.91703744   461331 
 9954000   0.80326813   -2.5539228   -2.5539228   -1.6351088  0.036994362   -2.5539228   0.91881395   461331 
 9955000   0.80195648    -2.552617    -2.552617   -1.6353034  0.036346143    -2.552617   0.91731364   461331 
 9956000   0.80076337   -2.5516394   -2.5516394   -1.6356905  0.027948613   -2.5516394   0.91594891   461331 
 9957000   0.80010398   -2.5515492   -2.5515492   -1.6363546  0.028264935   -2.5515492   0.91519467   461331 
 9958000   0.80057882   -2.5514648   -2.5514648    -1.635727  0.024832471   -2.5514648    0.9157378   461331 
 9959000   0.80047835   -2.5501627   -2.5501627   -1.6345398  0.027831974   -2.5501627   0.91562288   461331 
 9960000   0.80240754   -2.5522554   -2.5522554   -1.6344258  0.030015698   -2.5522554   0.91782958   461331 
 9961000   0.80119959   -2.5518935   -2.5518935   -1.6354456  0.030504889   -2.5518935   0.91644787   461331 
 9962000   0.80123482    -2.551198    -2.551198   -1.6347099  0.026037295    -2.551198   0.91648816   461331 
 9963000   0.80231662   -2.5522918   -2.5522918   -1.6345662  0.036033592   -2.5522918   0.91772559   461331 
 9964000   0.80104859   -2.5508639   -2.5508639   -1.6345888  0.031299847   -2.5508639   0.91627515   461331 
 9965000   0.80056356    -2.550912    -2.550912   -1.6351917  0.037401221    -2.550912   0.91572035   461331 
 9966000   0.80122339   -2.5517997   -2.5517997   -1.6353246  0.030219724   -2.5517997    0.9164751   461331 
 9967000   0.80196103   -2.5528698   -2.5528698   -1.6355509  0.031858467   -2.5528698   0.91731884   461331 
 9968000   0.80176118   -2.5531073   -2.5531073   -1.6360171  0.033414564   -2.5531073   0.91709024   461331 
 9969000   0.80159355   -2.5537155   -2.5537155    -1.636817  0.033037018   -2.5537155    0.9168985   461331 
 9970000   0.80176017   -2.5536504   -2.5536504   -1.6365613  0.027945487   -2.5536504   0.91708909   461331 
 9971000   0.80087073   -2.5533063   -2.5533063   -1.6372346  0.037402707   -2.5533063   0.91607171   461331 
 9972000   0.80250093   -2.5544865   -2.5544865   -1.6365501  0.041813626   -2.5544865    0.9179364   461331 
 9973000   0.80267272   -2.5544625   -2.5544625   -1.6363296  0.038354602   -2.5544625    0.9181329   461331 
 9974000   0.80192891   -2.5538402   -2.5538402   -1.6365581  0.037589896   -2.5538402    0.9172821   461331 
 9975000   0.80218414   -2.5545223   -2.5545223   -1.6369483  0.037566195   -2.5545223   0.91757405   461331 
 9976000   0.80219569    -2.555301    -2.555301   -1.6377137  0.038341116    -2.555301   0.91758725   461331 
 9977000   0.80297537   -2.5557649   -2.5557649   -1.6372858  0.040452582   -2.5557649   0.91847909   461331 
 9978000   0.80210905   -2.5550182   -2.5550182   -1.6375301  0.032591932   -2.5550182   0.91748816   461331 
 9979000   0.80280104   -2.5555846   -2.5555846   -1.6373049  0.036446142   -2.5555846   0.91827968   461331 
 9980000   0.80326128   -2.5557823   -2.5557823   -1.6369762  0.033947097   -2.5557823   0.91880613   461331 
 9981000   0.80221067   -2.5555432   -2.5555432   -1.6379388  0.039351579   -2.5555432   0.91760439   461331 
 9982000   0.80059782   -2.5535345   -2.5535345    -1.637775  0.037264192   -2.5535345   0.91575955   461331 
 9983000   0.80060492   -2.5541865   -2.5541865   -1.6384189  0.030153051   -2.5541865   0.91576766   461331 
 9984000   0.80211666   -2.5556107   -2.5556107   -1.6381138  0.032485702   -2.5556107   0.91749686   461331 
 9985000    0.8020832   -2.5556563   -2.5556563   -1.6381977  0.032206706   -2.5556563   0.91745859   461331 
 9986000   0.80096575   -2.5525657   -2.5525657   -1.6363853  0.038199879   -2.5525657    0.9161804   461331 
 9987000   0.80187504   -2.5543428   -2.5543428   -1.6371223   0.03251969   -2.5543428   0.91722048   461331 
 9988000   0.80233184   -2.5544876   -2.5544876   -1.6367446  0.032797023   -2.5544876   0.91774299   461331 
 9989000   0.80111116   -2.5534584   -2.5534584   -1.6371116   0.04071511   -2.5534584   0.91634672   461331 
 9990000   0.80217919   -2.5542557   -2.5542557   -1.6366873  0.037367029   -2.5542557   0.91756838   461331 
 9991000   0.79982093    -2.551771    -2.551771   -1.6369001  0.037081709    -2.551771    0.9148709   461331 
 9992000   0.80049606   -2.5529893   -2.5529893   -1.6373461  0.037643658   -2.5529893   0.91564315   461331 
 9993000   0.80174605   -2.5544378   -2.5544378   -1.6373649  0.030606814   -2.5544378   0.91707294   461331 
 9994000   0.80251847   -2.5545126   -2.5545126   -1.6365561  0.031134903   -2.5545126   0.91795646   461331 
 9995000   0.80292961   -2.5549363   -2.5549363   -1.6365096  0.031488033   -2.5549363   0.91842675   461331 
 9996000   0.80144713   -2.5538221   -2.5538221   -1.6370911  0.043132909   -2.5538221   0.91673102   461331 
 9997000   0.80204883    -2.553991    -2.553991   -1.6365717  0.036635956    -2.553991   0.91741927   461331 
 9998000   0.80335562   -2.5550366   -2.5550366   -1.6361226  0.036364978   -2.5550366   0.91891404   461331 
 9999000   0.80220868   -2.5534621   -2.5534621     -1.63586  0.031696724   -2.5534621   0.91760211   461331 
10000000   0.80160759   -2.5534211   -2.5534211   -1.6365066  0.032589116   -2.5534211   0.91691456   461331 
Loop time of 87506.7 on 64 procs for 10000000 steps with 461331 atoms

Performance: 49367.644 tau/day, 114.277 timesteps/s
99.1% CPU use with 64 MPI tasks x 1 OpenMP threads

MPI task timing breakdown:
Section |  min time  |  avg time  |  max time  |%varavg|  %CPU | %total
-----------------------------------------------------------------------
Pair    | 16197      | 34982      | 45152      |4031.5 |  98.9 | 39.98
Bond    | 3.8066     | 4.4144     | 5.4178     |  16.0 | 100.0 |  0.01
Neigh   | 9189.9     | 14981      | 18614      |1743.0 |  99.8 | 17.12
Comm    | 15735      | 27972      | 48828      |4917.3 |  98.8 | 31.97
Output  | 435.53     | 437.49     | 439.34     |   4.6 |  98.2 |  0.50
Modify  | 6663.8     | 8430.4     | 11614      |1394.6 |  99.1 |  9.63
Other   |            | 699.5      |            |       |       |  0.80

Nlocal:        7208.30 ave        8033 max        6394 min
Histogram: 1 2 7 10 13 10 10 8 2 1
Nghost:        10477.0 ave       14175 max        5921 min
Histogram: 8 3 4 1 0 12 12 16 5 3
Neighs:       174847.0 ave      237655 max       60397 min
Histogram: 3 4 1 0 4 11 9 16 7 9

Total # of neighbors = 11190239
Ave neighs/atom = 24.256421
Ave special neighs/atom = 0.0000000
Neighbor list builds = 1000000
Dangerous builds = 990000

Total wall time: 24:18:34
