LAMMPS (29 Oct 2020)
  using 1 OpenMP thread(s) per MPI task
Created orthogonal box = (0.0000000 0.0000000 0.0000000) to (80.000000 80.000000 80.000000)
  2 by 4 by 4 MPI processor grid
Lattice spacing in x,y,z = 1.0000000 1.0000000 1.0000000
Created 512000 atoms
  create_atoms CPU = 0.018 seconds
512000 atoms in group solvent
Reading data file ...
  orthogonal box = (0.0000000 0.0000000 0.0000000) to (80.000000 80.000000 160.00000)
  2 by 2 by 8 MPI processor grid
Finding 1-2 1-3 1-4 neighbors ...
  special bond factors lj:    0.0      0.0      0.0     
  special bond factors coul:  0.0      0.0      0.0     
     0 = max # of 1-2 neighbors
     0 = max # of 1-3 neighbors
     0 = max # of 1-4 neighbors
     1 = max # of special neighbors
  special bonds CPU = 0.280 seconds
  read_data CPU = 0.309 seconds
Balancing ...
Neighbor list info ...
  update every 1 steps, delay 10 steps, check yes
  max neighbors/atom: 2000, page size: 100000
  master list distance cutoff = 2.9
  ghost atom cutoff = 2.9
  binsize = 1.45, bins = 56 56 111
  1 neighbor lists, perpetual/occasional/extra = 1 0 0
  (1) pair lj/cut/opt, perpetual
      attributes: half, newton on
      pair build: half/bin/newton
      stencil: half/bin/3d/newton
      bin: standard
 rebalancing time: 0.037 seconds
  iteration count = 5
  initial/final maximal load/proc = 32000.000 19200.000
  initial/final imbalance factor  = 2.0000000 1.2000000
  x cuts: 0.0000000 0.5 1.0000000
  y cuts: 0.0000000 0.5 1.0000000
  z cuts: 0.0000000 0.0625 0.12890625 0.1875 0.2578125 0.30859375 0.38671875 0.4375 1.0000000
WARNING: Ignoring 'compress yes' for molecular system (src/delete_atoms.cpp:125)
Deleted 19200 atoms, new total = 492800
WARNING: Ignoring 'compress yes' for molecular system (src/delete_atoms.cpp:125)
Deleted 0 atoms, new total = 492800
dynamic group thermo defined
New timer settings: style=full  mode=nosync  timeout=off
Setting up Verlet run ...
  Unit style    : lj
  Current step  : 0
  Time step     : 0.0025
Per MPI rank memory allocation (min/avg/max) = 21.45 | 22.19 | 22.73 Mbytes
Step Temp E_pair E_vdwl TotEng Press PotEng KinEng Volume 
       0   0.99997028   -3.2974116   -3.2974116   -1.7974593    8.5725801   -3.2974116    1.4999524      1024000 
    1000    1.7919116   -4.4318956   -4.4318956   -1.7440337    4.6967019   -4.4318956    2.6878619      1024000 
    2000      1.80152   -4.4454734   -4.4454734   -1.7431989    3.4556971   -4.4454734    2.7022745      1024000 
    3000    1.8025741   -4.4371537   -4.4371537   -1.7332981    2.4448678   -4.4371537    2.7038556      1024000 
    4000    1.8317776   -4.4407059   -4.4407059    -1.693045    1.4651538   -4.4407059    2.7476609      1024000 
    5000    1.8223413    -4.352079    -4.352079   -1.6185726   0.83829624    -4.352079    2.7335064      1024000 
    6000      1.79222   -4.2246483   -4.2246483   -1.5363237   0.50739622   -4.2246483    2.6883246      1024000 
    7000    1.7652044   -4.1071921   -4.1071921    -1.459391   0.35991595   -4.1071921    2.6478012      1024000 
    8000    1.7522128   -4.0196174   -4.0196174   -1.3913036   0.33431202   -4.0196174    2.6283138      1024000 
    9000    1.7476461   -3.9550867   -3.9550867   -1.3336228   0.34598786   -3.9550867    2.6214638      1024000 
   10000    1.7495523   -3.9109917   -3.9109917   -1.2866686   0.34405023   -3.9109917    2.6243231      1024000 
   11000    1.7562856   -3.8819896   -3.8819896   -1.2475666   0.35319075   -3.8819896    2.6344231      1024000 
   12000      1.76529   -3.8624452   -3.8624452   -1.2145156   0.36380845   -3.8624452    2.6479296      1024000 
   13000    1.7712675     -3.84243     -3.84243   -1.1855341    0.3848494     -3.84243    2.6568959      1024000 
   14000    1.7782271   -3.8296316   -3.8296316   -1.1622964   0.39761789   -3.8296316    2.6673352      1024000 
   15000    1.7878828   -3.8236304   -3.8236304   -1.1418116   0.42290624   -3.8236304    2.6818188      1024000 
   16000    1.7983268   -3.8220211   -3.8220211   -1.1245364   0.45727583   -3.8220211    2.6974847      1024000 
   17000     1.814192   -3.8297281   -3.8297281   -1.1084457   0.53683456   -3.8297281    2.7212824      1024000 
   18000     1.826351   -3.8362871   -3.8362871   -1.0967661    1.1437566   -3.8362871     2.739521      1024000 
   19000    1.8210921   -3.8162557   -3.8162557   -1.0846231    2.0320881   -3.8162557    2.7316326      1024000 
   20000    1.8152631   -3.7961641   -3.7961641    -1.073275    2.8969617   -3.7961641    2.7228891      1024000 
   21000    1.8042159   -3.7696351   -3.7696351   -1.0633168    3.6274228   -3.7696351    2.7063183      1024000 
   22000    1.8048259   -3.7610357   -3.7610357   -1.0538023    4.1995984   -3.7610357    2.7072334      1024000 
   23000    1.8248635   -3.7827721   -3.7827721   -1.0454824    3.5804137   -3.7827721    2.7372898      1024000 
   24000    1.8363206   -3.7922926   -3.7922926   -1.0378173    2.8571106   -3.7922926    2.7544753      1024000 
   25000    1.8500758   -3.8050194   -3.8050194   -1.0299114    2.1559108   -3.8050194     2.775108      1024000 
   26000    1.8430542   -3.7869693   -3.7869693   -1.0223935    1.5951885   -3.7869693    2.7645757      1024000 
   27000    1.8096011   -3.7307869   -3.7307869   -1.0163907    1.2223637   -3.7307869    2.7143962      1024000 
   28000    1.7641017   -3.6576224   -3.6576224   -1.0114752   0.97061915   -3.6576224    2.6461472      1024000 
   29000    1.7223737   -3.5907992   -3.5907992   -1.0072439    0.7644301   -3.5907992    2.5835553      1024000 
   30000    1.6828993   -3.5288555   -3.5288555   -1.0045117   0.60659926   -3.5288555    2.5243438      1024000 
   31000    1.6417456   -3.4787472   -3.4787472   -1.0161338   0.48436992   -3.4787472    2.4626133      1024000 
   32000    1.5854118   -3.4404199   -3.4404199    -1.062307   0.39820736   -3.4404199    2.3781128      1024000 
   33000    1.5215378   -3.4191721   -3.4191721   -1.1368701   0.33843806   -3.4191721     2.282302      1024000 
   34000    1.4576721   -3.4120487   -3.4120487   -1.2255449   0.30873259   -3.4120487    2.1865038      1024000 
   35000    1.4001355   -3.4198048   -3.4198048   -1.3196058   0.28620824   -3.4198048    2.1001989      1024000 
   36000    1.3501679   -3.4307831   -3.4307831   -1.4055354   0.26518896   -3.4307831    2.0252477      1024000 
   37000    1.3196734   -3.4512714   -3.4512714   -1.4717653   0.25701594   -3.4512714     1.979506      1024000 
   38000    1.3030254   -3.4749106   -3.4749106   -1.5203764   0.27265415   -3.4749106    1.9545342      1024000 
   39000    1.3001632   -3.5048519   -3.5048519   -1.5546111   0.28462509   -3.5048519    1.9502408      1024000 
   40000    1.3038659   -3.5334726   -3.5334726   -1.5776778   0.33687116   -3.5334726    1.9557948      1024000 
   41000    1.3172521   -3.5707839   -3.5707839   -1.5949097   0.40799642   -3.5707839    1.9758742      1024000 
   42000    1.3366494    -3.611767    -3.611767    -1.606797   0.51858521    -3.611767    2.0049701      1024000 
   43000    1.3538915    -3.647104    -3.647104   -1.6162709   0.64039315    -3.647104    2.0308331      1024000 
   44000    1.3723702   -3.6797305   -3.6797305   -1.6211794   0.76411201   -3.6797305    2.0585511      1024000 
   45000    1.3888304   -3.7086567   -3.7086567   -1.6254153   0.87149464   -3.7086567    2.0832414      1024000 
   46000    1.3999471   -3.7346659   -3.7346659   -1.6347495   0.94848791   -3.7346659    2.0999164      1024000 
   47000     1.403048   -3.7497989   -3.7497989   -1.6452311   0.98006612   -3.7497989    2.1045677      1024000 
   48000     1.382049   -3.7338014   -3.7338014   -1.6607321   0.87759458   -3.7338014    2.0730693      1024000 
   49000    1.3483413   -3.7046741   -3.7046741   -1.6821662   0.74557664   -3.7046741    2.0225078      1024000 
   50000    1.3169308   -3.6794619   -3.6794619   -1.7040697   0.63007911   -3.6794619    1.9753922      1024000 
   51000    1.2863238   -3.6585103   -3.6585103   -1.7290285   0.54143346   -3.6585103    1.9294817      1024000 
   52000    1.2568965   -3.6414449   -3.6414449    -1.756104   0.48229949   -3.6414449     1.885341      1024000 
   53000     1.232847   -3.6311046   -3.6311046   -1.7818378   0.43978178   -3.6311046    1.8492667      1024000 
   54000    1.2154785   -3.6296727   -3.6296727   -1.8064587   0.40889875   -3.6296727     1.823214      1024000 
   55000    1.2025781   -3.6328717   -3.6328717   -1.8290083   0.40123453   -3.6328717    1.8038634      1024000 
   56000    1.1972246   -3.6423503   -3.6423503    -1.846517   0.40303998   -3.6423503    1.7958332      1024000 
   57000    1.2001572   -3.6553735   -3.6553735   -1.8551413    0.4213733   -3.6553735    1.8002322      1024000 
   58000    1.2079667   -3.6701076   -3.6701076   -1.8581612   0.46263415   -3.6701076    1.8119463      1024000 
   59000    1.2163944   -3.6801736   -3.6801736   -1.8555858   0.52238559   -3.6801736    1.8245878      1024000 
   60000    1.2308502   -3.6946471   -3.6946471   -1.8483755   0.58124491   -3.6946471    1.8462716      1024000 
   61000    1.2419537    -3.700881    -3.700881   -1.8379542   0.62079567    -3.700881    1.8629268      1024000 
   62000    1.2457595   -3.6947812   -3.6947812   -1.8261457   0.63993818   -3.6947812    1.8686354      1024000 
   63000    1.2461649   -3.6812964   -3.6812964   -1.8120529   0.61692839   -3.6812964    1.8692435      1024000 
   64000    1.2421279   -3.6612199   -3.6612199   -1.7980319   0.56091032   -3.6612199    1.8631881      1024000 
   65000    1.2323893   -3.6337999   -3.6337999   -1.7852197   0.49844104   -3.6337999    1.8485802      1024000 
   66000    1.2192608   -3.6038814   -3.6038814   -1.7749938   0.43099208   -3.6038814    1.8288876      1024000 
   67000    1.2054612   -3.5737487   -3.5737487   -1.7655605   0.36393126   -3.5737487    1.8081882      1024000 
   68000     1.191394   -3.5456851   -3.5456851   -1.7585977   0.30477401   -3.5456851    1.7870874      1024000 
   69000    1.1787685   -3.5188116   -3.5188116   -1.7506625   0.26504553   -3.5188116    1.7681491      1024000 
   70000    1.1677256   -3.4962494   -3.4962494   -1.7446646   0.22983101   -3.4962494    1.7515848      1024000 
   71000     1.161322   -3.4801543   -3.4801543   -1.7381748   0.20804434   -3.4801543    1.7419795      1024000 
   72000    1.1560696   -3.4656953   -3.4656953   -1.7315944   0.19495843   -3.4656953    1.7341009      1024000 
   73000    1.1522575   -3.4534601   -3.4534601   -1.7250773   0.19044951   -3.4534601    1.7283828      1024000 
   74000    1.1515415   -3.4461514   -3.4461514   -1.7188426   0.19057032   -3.4461514    1.7273088      1024000 
   75000    1.1528335   -3.4392363   -3.4392363   -1.7099895   0.19913217   -3.4392363    1.7292468      1024000 
   76000    1.1586666   -3.4382837   -3.4382837   -1.7002873   0.20938637   -3.4382837    1.7379964      1024000 
   77000    1.1627305   -3.4368004   -3.4368004   -1.6927082   0.22688137   -3.4368004    1.7440922      1024000 
   78000    1.1693989   -3.4374399   -3.4374399   -1.6833452   0.24135658   -3.4374399    1.7540948      1024000 
   79000    1.1758878   -3.4376894   -3.4376894   -1.6738613   0.25805125   -3.4376894    1.7638282      1024000 
   80000    1.1805583   -3.4359225   -3.4359225   -1.6650886   0.27476845   -3.4359225    1.7708338      1024000 
   81000    1.1863287   -3.4369369   -3.4369369   -1.6574474   0.28415017   -3.4369369    1.7794894      1024000 
   82000    1.1901745   -3.4319931   -3.4319931    -1.646735    0.2945274   -3.4319931    1.7852581      1024000 
   83000    1.1940484   -3.4307147   -3.4307147   -1.6396457   0.29596086   -3.4307147     1.791069      1024000 
   84000    1.1960269   -3.4262455   -3.4262455   -1.6322089   0.30189047   -3.4262455    1.7940367      1024000 
   85000    1.1972166   -3.4224021   -3.4224021   -1.6265809   0.30748052   -3.4224021    1.7958212      1024000 
   86000    1.2038378   -3.4251705   -3.4251705   -1.6194174   0.31519563   -3.4251705    1.8057531      1024000 
   87000    1.2149196   -3.4359494   -3.4359494   -1.6135737   0.38480375   -3.4359494    1.8223757      1024000 
   88000    1.2321323   -3.4560307   -3.4560307   -1.6078361   0.50485272   -3.4560307    1.8481947      1024000 
   89000    1.2516403   -3.4795188   -3.4795188   -1.6020622   0.65851027   -3.4795188    1.8774566      1024000 
   90000    1.2723775   -3.5063295   -3.5063295    -1.597767   0.80990939   -3.5063295    1.9085624      1024000 
   91000    1.2927864    -3.531317    -3.531317   -1.5921412   0.95510698    -3.531317    1.9391757      1024000 
   92000    1.3125057   -3.5558152   -3.5558152   -1.5870607    1.0719455   -3.5558152    1.9687545      1024000 
   93000    1.3325414   -3.5820053   -3.5820053   -1.5831973    1.1374946   -3.5820053     1.998808      1024000 
   94000    1.3443013   -3.5947277   -3.5947277   -1.5782799    1.1667767   -3.5947277    2.0164479      1024000 
   95000    1.3534619   -3.6046154   -3.6046154   -1.5744268    1.1330448   -3.6046154    2.0301887      1024000 
   96000    1.3554286   -3.6035829   -3.6035829   -1.5704442    1.0744706   -3.6035829    2.0331387      1024000 
   97000    1.3529658   -3.5962976   -3.5962976    -1.566853   0.99482884   -3.5962976    2.0294446      1024000 
   98000    1.3474917   -3.5840598   -3.5840598   -1.5628263   0.90035011   -3.5840598    2.0212335      1024000 
   99000    1.3350826     -3.56347     -3.56347   -1.5608502   0.81012114     -3.56347    2.0026198      1024000 
  100000    1.3203879   -3.5387633   -3.5387633   -1.5581855   0.71257017   -3.5387633    1.9805779      1024000 
  101000    1.3051656   -3.5132506   -3.5132506   -1.5555061   0.62038415   -3.5132506    1.9577445      1024000 
  102000    1.2858788   -3.4825737   -3.4825737   -1.5537593   0.53435161   -3.4825737    1.9288144      1024000 
  103000    1.2669296   -3.4524164   -3.4524164   -1.5520259   0.46107326   -3.4524164    1.9003905      1024000 
  104000    1.2460785   -3.4221858   -3.4221858   -1.5530719     0.391051   -3.4221858     1.869114      1024000 
  105000     1.222283   -3.3936798   -3.3936798   -1.5602591    0.3266977   -3.3936798    1.8334207      1024000 
  106000    1.1976906   -3.3697177   -3.3697177   -1.5731855   0.27097474   -3.3697177    1.7965322      1024000 
  107000    1.1734026   -3.3480635   -3.3480635   -1.5879631   0.22676523   -3.3480635    1.7601004      1024000 
  108000    1.1491533   -3.3283263   -3.3283263   -1.6045999   0.20049801   -3.3283263    1.7237264      1024000 
  109000    1.1307806   -3.3169434   -3.3169434   -1.6207759   0.16852188   -3.3169434    1.6961675      1024000 
  110000    1.1143913   -3.3077403   -3.3077403   -1.6361568   0.14564756   -3.3077403    1.6715835      1024000 
  111000     1.102358   -3.3024152   -3.3024152   -1.6488816   0.13105175   -3.3024152    1.6535336      1024000 
  112000    1.0927759   -3.2984251   -3.2984251   -1.6592646   0.12443035   -3.2984251    1.6391605      1024000 
  113000    1.0896739   -3.3017022   -3.3017022   -1.6671946   0.11908315   -3.3017022    1.6345076      1024000 
  114000    1.0845784   -3.3024628   -3.3024628   -1.6755984   0.12797022   -3.3024628    1.6268644      1024000 
  115000    1.0837725   -3.3074718   -3.3074718   -1.6818163   0.12977424   -3.3074718    1.6256554      1024000 
  116000    1.0871029   -3.3166954   -3.3166954   -1.6860444   0.13812198   -3.3166954    1.6306511      1024000 
  117000    1.0912782   -3.3242124   -3.3242124   -1.6872984   0.15498537   -3.3242124     1.636914      1024000 
  118000    1.0977291   -3.3341602   -3.3341602   -1.6875699   0.16256724   -3.3341602    1.6465903      1024000 
  119000    1.1041602   -3.3421436   -3.3421436   -1.6859067   0.18600772   -3.3421436    1.6562369      1024000 
  120000    1.1127719   -3.3547763   -3.3547763   -1.6856218   0.20472411   -3.3547763    1.6691545      1024000 
  121000    1.1231812   -3.3686303   -3.3686303   -1.6838619   0.22338903   -3.3686303    1.6847684      1024000 
  122000    1.1323253   -3.3809805   -3.3809805   -1.6824961   0.24909728   -3.3809805    1.6984845      1024000 
  123000    1.1451349   -3.3965122   -3.3965122   -1.6788133   0.28458097   -3.3965122    1.7176989      1024000 
  124000    1.1551653   -3.4085156   -3.4085156   -1.6757712   0.32337874   -3.4085156    1.7327444      1024000 
  125000    1.1649046   -3.4196571   -3.4196571   -1.6723038   0.35681328   -3.4196571    1.7473533      1024000 
  126000    1.1754989   -3.4328774   -3.4328774   -1.6696327   0.38245519   -3.4328774    1.7632447      1024000 
  127000    1.1810453   -3.4395656   -3.4395656   -1.6680013    0.4067604   -3.4395656    1.7715644      1024000 
  128000    1.1861279   -3.4436806   -3.4436806   -1.6644924   0.42546142   -3.4436806    1.7791882      1024000 
  129000    1.1869469   -3.4438007   -3.4438007    -1.663384   0.41786758   -3.4438007    1.7804167      1024000 
  130000    1.1852761   -3.4386091   -3.4386091   -1.6606986   0.39864444   -3.4386091    1.7779105      1024000 
  131000    1.1776613   -3.4245448   -3.4245448   -1.6580564   0.36991595   -3.4245448    1.7664884      1024000 
  132000    1.1666038   -3.4084435   -3.4084435   -1.6585413    0.3264557   -3.4084435    1.7499022      1024000 
  133000    1.1562457   -3.3913084   -3.3913084   -1.6569434   0.30488054   -3.3913084     1.734365      1024000 
  134000    1.1466927   -3.3775885   -3.3775885   -1.6575529   0.26032458   -3.3775885    1.7200356      1024000 
  135000    1.1370223    -3.364458    -3.364458    -1.658928   0.23205093    -3.364458      1.70553      1024000 
  136000    1.1269556   -3.3505123   -3.3505123   -1.6600824   0.21064921   -3.3505123    1.6904299      1024000 
  137000     1.118918   -3.3403219   -3.3403219   -1.6619483   0.19327566   -3.3403219    1.6783736      1024000 
  138000    1.1124243   -3.3326922   -3.3326922   -1.6640591   0.17492479   -3.3326922    1.6686331      1024000 
  139000    1.1068247   -3.3247952   -3.3247952   -1.6645615    0.1697354   -3.3247952    1.6602337      1024000 
  140000    1.1040014   -3.3207211   -3.3207211   -1.6647223   0.16654587   -3.3207211    1.6559987      1024000 
  141000    1.1008178   -3.3177356   -3.3177356   -1.6665122   0.16861236   -3.3177356    1.6512233      1024000 
  142000    1.1017179   -3.3194472   -3.3194472   -1.6668737   0.16555267   -3.3194472    1.6525735      1024000 
  143000    1.1025163   -3.3204782   -3.3204782    -1.666707   0.17811623   -3.3204782    1.6537712      1024000 
  144000    1.1036462   -3.3212256   -3.3212256   -1.6657596   0.18808505   -3.3212256    1.6554659      1024000 
  145000    1.1058254   -3.3232748   -3.3232748   -1.6645401   0.19594874   -3.3232748    1.6587347      1024000 
  146000    1.1111379   -3.3281649   -3.3281649   -1.6614613    0.2046443   -3.3281649    1.6667035      1024000 
  147000    1.1165504   -3.3343594   -3.3343594   -1.6595372   0.21599447   -3.3343594    1.6748221      1024000 
  148000    1.1198172   -3.3366043   -3.3366043   -1.6568819   0.22593831   -3.3366043    1.6797224      1024000 
  149000    1.1242567   -3.3397475   -3.3397475   -1.6533659   0.24098725   -3.3397475    1.6863816      1024000 
  150000    1.1296249   -3.3439475   -3.3439475   -1.6495136   0.24972163   -3.3439475    1.6944339      1024000 
  151000    1.1342057   -3.3470915   -3.3470915   -1.6457865   0.25822941   -3.3470915     1.701305      1024000 
  152000    1.1381965   -3.3483991   -3.3483991   -1.6411079    0.2718729   -3.3483991    1.7072913      1024000 
  153000    1.1427293   -3.3501689   -3.3501689   -1.6360785   0.27705386   -3.3501689    1.7140904      1024000 
  154000    1.1471386   -3.3520811   -3.3520811   -1.6313766   0.29140583   -3.3520811    1.7207044      1024000 
  155000    1.1525927   -3.3569663   -3.3569663   -1.6280807   0.29948381   -3.3569663    1.7288856      1024000 
  156000    1.1591778   -3.3623082   -3.3623082    -1.623545   0.32655137   -3.3623082    1.7387632      1024000 
  157000    1.1693683   -3.3742657   -3.3742657   -1.6202168   0.36660846   -3.3742657    1.7540489      1024000 
  158000    1.1796958   -3.3856288   -3.3856288   -1.6160887    0.4139752   -3.3856288    1.7695401      1024000 
  159000    1.1902712   -3.3964799   -3.3964799   -1.6110768   0.46953296   -3.3964799    1.7854031      1024000 
  160000    1.2008915   -3.4085836   -3.4085836   -1.6072501   0.52177083   -3.4085836    1.8013336      1024000 
  161000    1.2112368   -3.4214235   -3.4214235   -1.6045721   0.55739254   -3.4214235    1.8168515      1024000 
  162000    1.2198674   -3.4318765   -3.4318765   -1.6020791   0.60224365   -3.4318765    1.8297974      1024000 
  163000    1.2259337   -3.4390323   -3.4390323   -1.6001355   0.63028249   -3.4390323    1.8388968      1024000 
  164000    1.2354695   -3.4508204   -3.4508204   -1.5976199   0.63907855   -3.4508204    1.8532005      1024000 
  165000    1.2379735   -3.4523843   -3.4523843   -1.5954279   0.64723268   -3.4523843    1.8569565      1024000 
  166000    1.2406164   -3.4534772   -3.4534772   -1.5925563   0.63396805   -3.4534772    1.8609209      1024000 
  167000    1.2409763   -3.4535317   -3.4535317    -1.592071   0.61443393   -3.4535317    1.8614607      1024000 
  168000    1.2374115   -3.4456124   -3.4456124   -1.5894989   0.58916288   -3.4456124    1.8561135      1024000 
  169000    1.2339954   -3.4395745   -3.4395745   -1.5885851   0.55976383   -3.4395745    1.8509894      1024000 
  170000    1.2268277   -3.4272258   -3.4272258   -1.5869881   0.52977421   -3.4272258    1.8402378      1024000 
  171000    1.2228047   -3.4184441   -3.4184441   -1.5842408   0.48906738   -3.4184441    1.8342033      1024000 
  172000    1.2136554   -3.4037971   -3.4037971   -1.5833176   0.45693894   -3.4037971    1.8204794      1024000 
  173000    1.2046423   -3.3889029   -3.3889029   -1.5819432   0.42387207   -3.3889029    1.8069597      1024000 
  174000    1.1974732   -3.3767993   -3.3767993   -1.5805932   0.39095888   -3.3767993    1.7962061      1024000 
  175000    1.1884922   -3.3627814   -3.3627814   -1.5800467   0.35980347   -3.3627814    1.7827347      1024000 
  176000    1.1791836   -3.3502409   -3.3502409   -1.5814691   0.32499463   -3.3502409    1.7687718      1024000 
  177000    1.1684548   -3.3374131   -3.3374131   -1.5847344   0.30580115   -3.3374131    1.7526787      1024000 
  178000     1.159066    -3.328014    -3.328014   -1.5894185   0.27022121    -3.328014    1.7385955      1024000 
  179000    1.1469238   -3.3151332   -3.3151332   -1.5947511    0.2517017   -3.3151332    1.7203822      1024000 
  180000    1.1365205   -3.3056915   -3.3056915   -1.6009143   0.23242594   -3.3056915    1.7047773      1024000 
  181000    1.1278857   -3.2986504   -3.2986504   -1.6068253   0.22026473   -3.2986504    1.6918251      1024000 
  182000    1.1206073   -3.2924658   -3.2924658   -1.6115582   0.19827995   -3.2924658    1.6809076      1024000 
  183000    1.1141893   -3.2873404   -3.2873404   -1.6160599   0.19217861   -3.2873404    1.6712805      1024000 
  184000    1.1088283   -3.2832707   -3.2832707   -1.6200316    0.1882278   -3.2832707    1.6632391      1024000 
  185000    1.1064375   -3.2822781   -3.2822781   -1.6226252   0.18329509   -3.2822781    1.6596529      1024000 
  186000     1.105636   -3.2832524   -3.2832524   -1.6248018   0.18002073   -3.2832524    1.6584506      1024000 
  187000    1.1039409   -3.2831093   -3.2831093   -1.6272013   0.17933403   -3.2831093     1.655908      1024000 
  188000    1.1049584   -3.2846854   -3.2846854   -1.6272512   0.18329989   -3.2846854    1.6574342      1024000 
  189000     1.105436   -3.2865131   -3.2865131   -1.6283625   0.17989033   -3.2865131    1.6581506      1024000 
  190000     1.107534   -3.2899628   -3.2899628   -1.6286651   0.18376875   -3.2899628    1.6612976      1024000 
  191000    1.1098583   -3.2931611   -3.2931611   -1.6283771   0.18865984   -3.2931611    1.6647841      1024000 
  192000    1.1145726   -3.2988819   -3.2988819   -1.6270264   0.19872714   -3.2988819    1.6718555      1024000 
  193000    1.1180675   -3.3032012   -3.3032012   -1.6261034    0.2161102   -3.3032012    1.6770979      1024000 
  194000    1.1228702   -3.3086494   -3.3086494   -1.6243476   0.22320532   -3.3086494    1.6843018      1024000 
  195000    1.1281584    -3.314193    -3.314193   -1.6219589   0.23679344    -3.314193    1.6922342      1024000 
  196000    1.1315897   -3.3180597   -3.3180597   -1.6206786   0.24763714   -3.3180597    1.6973811      1024000 
  197000       1.1366   -3.3235101   -3.3235101   -1.6186135   0.26531356   -3.3235101    1.7048965      1024000 
  198000    1.1423215   -3.3297608   -3.3297608    -1.616282   0.27341972   -3.3297608    1.7134788      1024000 
  199000    1.1444079   -3.3301399   -3.3301399   -1.6135316   0.28773648   -3.3301399    1.7166083      1024000 
  200000    1.1464993   -3.3315975   -3.3315975    -1.611852   0.29560395   -3.3315975    1.7197455      1024000 
  201000    1.1505699   -3.3359016   -3.3359016   -1.6100502   0.29487648   -3.3359016    1.7258514      1024000 
  202000    1.1489947   -3.3315891   -3.3315891   -1.6081006   0.30096307   -3.3315891    1.7234885      1024000 
  203000    1.1457442   -3.3253887   -3.3253887   -1.6067759   0.29206382   -3.3253887    1.7186128      1024000 
  204000     1.144762   -3.3216853   -3.3216853   -1.6045457   0.27829288   -3.3216853    1.7171396      1024000 
  205000    1.1428751   -3.3176974   -3.3176974   -1.6033883   0.26366335   -3.3176974    1.7143091      1024000 
  206000    1.1396578   -3.3109398   -3.3109398   -1.6014566   0.25705798   -3.3109398    1.7094833      1024000 
  207000    1.1372117   -3.3056965   -3.3056965   -1.5998824   0.24539007   -3.3056965    1.7058141      1024000 
  208000     1.134259   -3.3011962   -3.3011962   -1.5998111    0.2405964   -3.3011962    1.7013851      1024000 
  209000    1.1319101   -3.2961993   -3.2961993   -1.5983375   0.24252568   -3.2961993    1.6978618      1024000 
  210000    1.1346287   -3.2989693   -3.2989693   -1.5970297   0.24447686   -3.2989693    1.7019396      1024000 
  211000    1.1354194   -3.2998945   -3.2998945   -1.5967688   0.26315719   -3.2998945    1.7031257      1024000 
  212000    1.1404773   -3.3055057   -3.3055057   -1.5947933   0.27630703   -3.3055057    1.7107124      1024000 
  213000    1.1456028   -3.3122814   -3.3122814   -1.5938807   0.30151377   -3.3122814    1.7184007      1024000 
  214000    1.1522793   -3.3197645   -3.3197645    -1.591349   0.32583863   -3.3197645    1.7284154      1024000 
  215000    1.1578798   -3.3270148   -3.3270148   -1.5901986    0.3502026   -3.3270148    1.7368162      1024000 
  216000    1.1627511    -3.333625    -3.333625   -1.5895019   0.37849483    -3.333625    1.7441231      1024000 
  217000    1.1713282   -3.3439702   -3.3439702   -1.5869814   0.39205394   -3.3439702    1.7569888      1024000 
  218000    1.1767555   -3.3500599   -3.3500599   -1.5849302   0.41639566   -3.3500599    1.7651297      1024000 
  219000    1.1817394   -3.3564196   -3.3564196   -1.5838141   0.43520616   -3.3564196    1.7726055      1024000 
  220000    1.1870419   -3.3624621   -3.3624621   -1.5819029    0.4416726   -3.3624621    1.7805592      1024000 
  221000     1.191736   -3.3678963   -3.3678963   -1.5802959   0.44818064   -3.3678963    1.7876004      1024000 
  222000    1.1951169   -3.3701443   -3.3701443   -1.5774725   0.45119616   -3.3701443    1.7926717      1024000 
  223000     1.197859   -3.3710732   -3.3710732   -1.5742883   0.44833779   -3.3710732    1.7967849      1024000 
  224000    1.1979179   -3.3699491   -3.3699491   -1.5730758   0.44791558   -3.3699491    1.7968733      1024000 
  225000    1.1990024   -3.3689785   -3.3689785   -1.5704786   0.44046891   -3.3689785    1.7984999      1024000 
  226000    1.1983987   -3.3651722   -3.3651722   -1.5675777   0.43343079   -3.3651722    1.7975944      1024000 
  227000    1.1984245   -3.3636608   -3.3636608   -1.5660277    0.4212002   -3.3636608    1.7976331      1024000 
  228000    1.1961162   -3.3586744   -3.3586744   -1.5645038   0.41625431   -3.3586744    1.7941706      1024000 
  229000    1.1942095   -3.3533913   -3.3533913   -1.5620806   0.41031076   -3.3533913    1.7913107      1024000 
  230000    1.1932548   -3.3499126   -3.3499126   -1.5600341   0.39658365   -3.3499126    1.7898785      1024000 
  231000    1.1910596   -3.3452192   -3.3452192   -1.5586334   0.37714265   -3.3452192    1.7865858      1024000 
  232000    1.1862372    -3.337281    -3.337281   -1.5579287   0.36560949    -3.337281    1.7793522      1024000 
  233000    1.1842587   -3.3354667   -3.3354667   -1.5590822   0.35182605   -3.3354667    1.7763845      1024000 
  234000    1.1768577   -3.3258597   -3.3258597   -1.5605768   0.34629048   -3.3258597    1.7652829      1024000 
  235000    1.1697907   -3.3170332   -3.3170332   -1.5623507   0.33120119   -3.3170332    1.7546825      1024000 
  236000    1.1657996   -3.3130587   -3.3130587   -1.5643629    0.3177368   -3.3130587    1.7486958      1024000 
  237000    1.1608487    -3.308214    -3.308214   -1.5669445   0.30263993    -3.308214    1.7412696      1024000 
  238000    1.1536432    -3.300811    -3.300811   -1.5703497   0.29442994    -3.300811    1.7304613      1024000 
  239000    1.1491066   -3.2949761   -3.2949761   -1.5713197   0.28252573   -3.2949761    1.7236564      1024000 
  240000    1.1470566    -3.293663    -3.293663   -1.5730816    0.2622089    -3.293663    1.7205814      1024000 
  241000    1.1406569   -3.2855224   -3.2855224   -1.5745405   0.26481639   -3.2855224    1.7109819      1024000 
  242000    1.1379476   -3.2819998   -3.2819998   -1.5750818    0.2553607   -3.2819998    1.7069179      1024000 
  243000    1.1361144   -3.2798598   -3.2798598   -1.5756917   0.24540982   -3.2798598    1.7041681      1024000 
  244000    1.1342704   -3.2778061   -3.2778061   -1.5764039    0.2424228   -3.2778061    1.7014022      1024000 
  245000    1.1326512   -3.2764586   -3.2764586   -1.5774853   0.23628843   -3.2764586    1.6989733      1024000 
  246000     1.130225   -3.2746424   -3.2746424   -1.5793083   0.23219202   -3.2746424    1.6953341      1024000 
  247000    1.1312139   -3.2756629   -3.2756629   -1.5788455   0.22862159   -3.2756629    1.6968173      1024000 
  248000    1.1309172   -3.2744727   -3.2744727   -1.5781004   0.23200247   -3.2744727    1.6963723      1024000 
  249000    1.1316302   -3.2750731   -3.2750731   -1.5776313   0.22931359   -3.2750731    1.6974418      1024000 
  250000    1.1321271   -3.2754237   -3.2754237   -1.5772365   0.24059654   -3.2754237    1.6981872      1024000 
  251000    1.1340855   -3.2777285   -3.2777285   -1.5766037   0.23697619   -3.2777285    1.7011248      1024000 
  252000    1.1340586   -3.2779202   -3.2779202   -1.5768357   0.24186568   -3.2779202    1.7010845      1024000 
  253000    1.1373674   -3.2817917   -3.2817917   -1.5757441   0.24887461   -3.2817917    1.7060476      1024000 
  254000    1.1387174   -3.2827853   -3.2827853   -1.5747126   0.25061776   -3.2827853    1.7080727      1024000 
  255000    1.1410113   -3.2842766   -3.2842766   -1.5727632   0.26029753   -3.2842766    1.7115134      1024000 
  256000    1.1431132    -3.285046    -3.285046   -1.5703798   0.26996713    -3.285046    1.7146663      1024000 
  257000     1.147467   -3.2897548   -3.2897548   -1.5685578   0.26804446   -3.2897548     1.721197      1024000 
  258000    1.1480058   -3.2894204   -3.2894204   -1.5674151   0.27782103   -3.2894204    1.7220052      1024000 
  259000    1.1484177   -3.2894443   -3.2894443   -1.5668213   0.28247157   -3.2894443     1.722623      1024000 
  260000    1.1495874   -3.2905806   -3.2905806    -1.566203   0.28150508   -3.2905806    1.7243776      1024000 
  261000    1.1506742   -3.2898303   -3.2898303   -1.5638225   0.28788051   -3.2898303    1.7260077      1024000 
  262000    1.1523622    -3.290957    -3.290957   -1.5624172   0.29194097    -3.290957    1.7285398      1024000 
  263000    1.1541741   -3.2925087   -3.2925087    -1.561251   0.30235226   -3.2925087    1.7312577      1024000 
  264000    1.1563878   -3.2948588   -3.2948588   -1.5602805   0.30685007   -3.2948588    1.7345782      1024000 
  265000    1.1594914   -3.2979976   -3.2979976    -1.558764   0.30479976   -3.2979976    1.7392336      1024000 
  266000    1.1612445    -3.299805    -3.299805   -1.5579419   0.32578478    -3.299805    1.7418632      1024000 
  267000    1.1653099   -3.3039374   -3.3039374   -1.5559761   0.33254811   -3.3039374    1.7479613      1024000 
  268000    1.1676106   -3.3051619   -3.3051619   -1.5537496   0.35051412   -3.3051619    1.7514124      1024000 
  269000    1.1714586    -3.310626    -3.310626   -1.5534416   0.36007541    -3.310626    1.7571844      1024000 
  270000    1.1766217   -3.3167189   -3.3167189   -1.5517899   0.36285588   -3.3167189     1.764929      1024000 
  271000    1.1763336    -3.315884    -3.315884   -1.5513872   0.37804027    -3.315884    1.7644969      1024000 
  272000    1.1801846   -3.3207796   -3.3207796   -1.5505063   0.38645695   -3.3207796    1.7702733      1024000 
  273000    1.1813072   -3.3208128   -3.3208128   -1.5488556   0.39433034   -3.3208128    1.7719572      1024000 
  274000    1.1839543   -3.3237575   -3.3237575   -1.5478296   0.39278115   -3.3237575    1.7759279      1024000 
  275000    1.1862267   -3.3258067   -3.3258067   -1.5464703    0.3958903   -3.3258067    1.7793364      1024000 
  276000    1.1868869   -3.3255419   -3.3255419   -1.5452153   0.39865679   -3.3255419    1.7803267      1024000 
  277000    1.1876462   -3.3254935   -3.3254935   -1.5440279   0.39449533   -3.3254935    1.7814656      1024000 
  278000     1.186115   -3.3224737   -3.3224737   -1.5433048   0.39144743   -3.3224737    1.7791689      1024000 
  279000     1.186001   -3.3206076   -3.3206076   -1.5416097   0.38227707   -3.3206076    1.7789979      1024000 
  280000    1.1837401   -3.3164802   -3.3164802   -1.5408737   0.38375491   -3.3164802    1.7756065      1024000 
  281000    1.1841853   -3.3154949   -3.3154949   -1.5392205   0.37858863   -3.3154949    1.7762744      1024000 
  282000    1.1824634   -3.3123601   -3.3123601   -1.5386685   0.36591715   -3.3123601    1.7736916      1024000 
  283000    1.1825023   -3.3098307   -3.3098307   -1.5360809   0.35363019   -3.3098307    1.7737499      1024000 
  284000     1.180155   -3.3056968   -3.3056968   -1.5354678   0.35442893   -3.3056968    1.7702289      1024000 
  285000    1.1774758   -3.3008191   -3.3008191    -1.534609   0.35166838   -3.3008191    1.7662101      1024000 
  286000    1.1758351   -3.2989572   -3.2989572   -1.5352081   0.33743269   -3.2989572    1.7637491      1024000 
  287000     1.172458   -3.2949643   -3.2949643   -1.5362808    0.3273662   -3.2949643    1.7586835      1024000 
  288000    1.1705094   -3.2916391   -3.2916391   -1.5358785   0.31763136   -3.2916391    1.7557606      1024000 
  289000    1.1678174   -3.2885036   -3.2885036    -1.536781    0.3108007   -3.2885036    1.7517226      1024000 
  290000    1.1629778   -3.2831653   -3.2831653   -1.5387021   0.30502175   -3.2831653    1.7444632      1024000 
  291000    1.1600355   -3.2792953   -3.2792953   -1.5392455   0.30040066   -3.2792953    1.7400497      1024000 
  292000     1.158302   -3.2769855   -3.2769855    -1.539536   0.29138924   -3.2769855    1.7374495      1024000 
  293000    1.1549053    -3.272856    -3.272856   -1.5405016   0.28661833    -3.272856    1.7323544      1024000 
  294000    1.1539934    -3.271582    -3.271582   -1.5405954   0.27768154    -3.271582    1.7309866      1024000 
  295000    1.1529492   -3.2699502   -3.2699502   -1.5405299   0.27288804   -3.2699502    1.7294203      1024000 
  296000    1.1506981   -3.2666621   -3.2666621   -1.5406185   0.27037148   -3.2666621    1.7260436      1024000 
  297000    1.1495855   -3.2651207   -3.2651207   -1.5407459   0.27277602   -3.2651207    1.7243748      1024000 
  298000    1.1500943   -3.2653044   -3.2653044   -1.5401665   0.26887266   -3.2653044     1.725138      1024000 
  299000    1.1505226   -3.2658148   -3.2658148   -1.5400343   0.26649632   -3.2658148    1.7257804      1024000 
  300000      1.14933   -3.2638553   -3.2638553   -1.5398637   0.26784043   -3.2638553    1.7239916      1024000 
  301000    1.1489696   -3.2636737   -3.2636737   -1.5402229   0.26529924   -3.2636737    1.7234509      1024000 
  302000    1.1491892    -3.264048    -3.264048   -1.5402677    0.2659719    -3.264048    1.7237803      1024000 
  303000     1.150913   -3.2660811   -3.2660811   -1.5397151   0.25900222   -3.2660811     1.726366      1024000 
  304000    1.1497723   -3.2636015   -3.2636015   -1.5389466   0.26744347   -3.2636015    1.7246549      1024000 
  305000    1.1498963   -3.2632167   -3.2632167   -1.5383758   0.27271429   -3.2632167     1.724841      1024000 
  306000    1.1500242   -3.2626927   -3.2626927     -1.53766   0.27106008   -3.2626927    1.7250328      1024000 
  307000    1.1517159   -3.2638396   -3.2638396   -1.5362693   0.27549325   -3.2638396    1.7275703      1024000 
  308000    1.1540774   -3.2662307   -3.2662307   -1.5351181   0.27697485   -3.2662307    1.7311126      1024000 
  309000    1.1561022   -3.2683018   -3.2683018   -1.5341519   0.28558424   -3.2683018    1.7341498      1024000 
  310000    1.1573384   -3.2698152   -3.2698152   -1.5338111   0.28985962   -3.2698152    1.7360041      1024000 
  311000    1.1585641    -3.271739    -3.271739   -1.5338964   0.29408117    -3.271739    1.7378426      1024000 
  312000    1.1604233   -3.2732898   -3.2732898   -1.5326585   0.29769623   -3.2732898    1.7406314      1024000 
  313000     1.161111   -3.2732636   -3.2732636   -1.5316007   0.30718904   -3.2732636    1.7416629      1024000 
  314000    1.1640509   -3.2763107   -3.2763107   -1.5302379   0.30898706   -3.2763107    1.7460729      1024000 
  315000    1.1649632   -3.2774082   -3.2774082   -1.5299669   0.31461399   -3.2774082    1.7474413      1024000 
  316000    1.1662439   -3.2780669   -3.2780669   -1.5287046   0.32678525   -3.2780669    1.7493622      1024000 
  317000    1.1681222   -3.2794162   -3.2794162   -1.5272365   0.32899071   -3.2794162    1.7521797      1024000 
  318000    1.1701851   -3.2815041   -3.2815041     -1.52623   0.33407371   -3.2815041    1.7552741      1024000 
  319000    1.1722069   -3.2830809   -3.2830809    -1.524774   0.33950762   -3.2830809    1.7583068      1024000 
  320000    1.1740287   -3.2843837   -3.2843837   -1.5233443   0.34876321   -3.2843837    1.7610394      1024000 
  321000    1.1758884   -3.2860877   -3.2860877   -1.5222588   0.35549898   -3.2860877    1.7638289      1024000 
  322000    1.1773466   -3.2873544   -3.2873544   -1.5213381   0.35485538   -3.2873544    1.7660163      1024000 
  323000    1.1801506   -3.2894101   -3.2894101   -1.5191878   0.35803338   -3.2894101    1.7702222      1024000 
  324000    1.1821828   -3.2908995   -3.2908995   -1.5176289   0.36317151   -3.2908995    1.7732706      1024000 
  325000    1.1834358   -3.2907138   -3.2907138   -1.5155638   0.36706991   -3.2907138      1.77515      1024000 
  326000    1.1845032   -3.2912498   -3.2912498   -1.5144986   0.37020398   -3.2912498    1.7767512      1024000 
  327000    1.1847981   -3.2906947   -3.2906947   -1.5135013   0.36807464   -3.2906947    1.7771935      1024000 
  328000    1.1867869   -3.2926916   -3.2926916   -1.5125149   0.36808549   -3.2926916    1.7801767      1024000 
  329000    1.1859564   -3.2904731   -3.2904731   -1.5115421   0.36650724   -3.2904731     1.778931      1024000 
  330000    1.1870251   -3.2895924   -3.2895924   -1.5090583   0.36618057   -3.2895924    1.7805341      1024000 
  331000    1.1862543   -3.2874778   -3.2874778      -1.5081    0.3639486   -3.2874778    1.7793778      1024000 
  332000    1.1863101   -3.2867539   -3.2867539   -1.5072924   0.35620319   -3.2867539    1.7794615      1024000 
  333000     1.185132    -3.283366    -3.283366   -1.5056715   0.35138475    -3.283366    1.7776944      1024000 
  334000    1.1845641   -3.2816726   -3.2816726     -1.50483   0.35251781   -3.2816726    1.7768426      1024000 
  335000    1.1838597   -3.2797927   -3.2797927   -1.5040067   0.34710717   -3.2797927    1.7757859      1024000 
  336000    1.1828062   -3.2785812   -3.2785812   -1.5043755   0.34277316   -3.2785812    1.7742057      1024000 
  337000    1.1796888   -3.2740283   -3.2740283   -1.5044987   0.34026177   -3.2740283    1.7695296      1024000 
  338000    1.1780663   -3.2721333   -3.2721333   -1.5050375   0.33171271   -3.2721333    1.7670958      1024000 
  339000    1.1761471   -3.2695199   -3.2695199   -1.5053028   0.32661621   -3.2695199    1.7642171      1024000 
  340000      1.17479   -3.2673242   -3.2673242   -1.5051428   0.31894505   -3.2673242    1.7621814      1024000 
  341000    1.1730435   -3.2646919   -3.2646919   -1.5051302   0.31435046   -3.2646919    1.7595617      1024000 
  342000    1.1713608   -3.2624855   -3.2624855   -1.5054479   0.31068797   -3.2624855    1.7570376      1024000 
  343000    1.1687834   -3.2589578   -3.2589578   -1.5057864   0.31099877   -3.2589578    1.7531715      1024000 
  344000    1.1689619   -3.2594892   -3.2594892   -1.5060499   0.29637898   -3.2594892    1.7534393      1024000 
  345000    1.1672174   -3.2568556   -3.2568556   -1.5060331   0.29231497   -3.2568556    1.7508225      1024000 
  346000    1.1652984   -3.2538909   -3.2538909    -1.505947   0.29281991   -3.2538909     1.747944      1024000 
  347000    1.1643161   -3.2521606   -3.2521606     -1.50569   0.29630828   -3.2521606    1.7464707      1024000 
  348000    1.1642848   -3.2523287   -3.2523287   -1.5059051   0.29214773   -3.2523287    1.7464236      1024000 
  349000    1.1619943   -3.2495748   -3.2495748   -1.5065869   0.29291734   -3.2495748    1.7429879      1024000 
  350000    1.1620592   -3.2499813   -3.2499813    -1.506896   0.29211359   -3.2499813    1.7430853      1024000 
  351000    1.1632824   -3.2514971   -3.2514971    -1.506577   0.28683605   -3.2514971    1.7449201      1024000 
  352000    1.1602817   -3.2468941   -3.2468941   -1.5064751    0.2882821   -3.2468941     1.740419      1024000 
  353000    1.1615447   -3.2475826   -3.2475826   -1.5052691   0.29465597   -3.2475826    1.7423135      1024000 
  354000     1.161503   -3.2472766   -3.2472766   -1.5050257   0.29361512   -3.2472766     1.742251      1024000 
  355000    1.1619868   -3.2470483   -3.2470483   -1.5040716   0.28890316   -3.2470483    1.7429767      1024000 
  356000    1.1639291   -3.2486849   -3.2486849   -1.5027947   0.28604203   -3.2486849    1.7458902      1024000 
  357000    1.1647114   -3.2486282   -3.2486282   -1.5015646   0.28962203   -3.2486282    1.7470636      1024000 
  358000    1.1643212   -3.2477074   -3.2477074   -1.5012292   0.29786243   -3.2477074    1.7464782      1024000 
  359000    1.1660532     -3.24919     -3.24919   -1.5001138   0.29737421     -3.24919    1.7490762      1024000 
  360000      1.16663   -3.2485662   -3.2485662   -1.4986248   0.30419592   -3.2485662    1.7499414      1024000 
  361000    1.1680999   -3.2497287   -3.2497287   -1.4975823   0.30926504   -3.2497287    1.7521464      1024000 
  362000    1.1707612   -3.2527648   -3.2527648   -1.4966266   0.30513865   -3.2527648    1.7561382      1024000 
  363000    1.1695862   -3.2509957   -3.2509957     -1.49662   0.31119842   -3.2509957    1.7543757      1024000 
  364000    1.1723313   -3.2543749   -3.2543749   -1.4958816   0.31713758   -3.2543749    1.7584933      1024000 
  365000    1.1728346   -3.2546534   -3.2546534    -1.495405   0.31961672   -3.2546534    1.7592484      1024000 
  366000    1.1737007   -3.2550055   -3.2550055    -1.494458   0.32181421   -3.2550055    1.7605475      1024000 
  367000    1.1758335    -3.256924    -3.256924   -1.4931773   0.32915436    -3.256924    1.7637467      1024000 
  368000    1.1786152   -3.2591566   -3.2591566   -1.4912374   0.32765846   -3.2591566    1.7679193      1024000 
  369000     1.179752   -3.2583946   -3.2583946   -1.4887702   0.33272383   -3.2583946    1.7696244      1024000 
  370000    1.1790138   -3.2566792   -3.2566792   -1.4881621   0.34167359   -3.2566792    1.7685171      1024000 
  371000    1.1803079   -3.2580202   -3.2580202    -1.487562   0.34412147   -3.2580202    1.7704583      1024000 
  372000    1.1827694   -3.2603024   -3.2603024   -1.4861519    0.3471911   -3.2603024    1.7741505      1024000 
  373000    1.1834454   -3.2601749   -3.2601749   -1.4850104    0.3508332   -3.2601749    1.7751645      1024000 
  374000    1.1838203    -3.260744    -3.260744   -1.4850172   0.35087039    -3.260744    1.7757268      1024000 
  375000    1.1853143   -3.2622769   -3.2622769    -1.484309   0.35971321   -3.2622769    1.7779679      1024000 
  376000    1.1878403   -3.2647007   -3.2647007    -1.482944   0.35770839   -3.2647007    1.7817568      1024000 
  377000    1.1875481   -3.2633469   -3.2633469   -1.4820283   0.35603346   -3.2633469    1.7813186      1024000 
  378000    1.1879842   -3.2621027   -3.2621027   -1.4801301   0.35886576   -3.2621027    1.7819726      1024000 
  379000    1.1895251   -3.2625254   -3.2625254   -1.4782413   0.35890584   -3.2625254    1.7842841      1024000 
  380000    1.1895259   -3.2613092   -3.2613092   -1.4770241   0.36304501   -3.2613092    1.7842852      1024000 
  381000     1.189249   -3.2606518   -3.2606518    -1.476782   0.35802145   -3.2606518    1.7838699      1024000 
  382000    1.1900081   -3.2603674   -3.2603674   -1.4753588    0.3564577   -3.2603674    1.7850086      1024000 
  383000    1.1897031   -3.2604515   -3.2604515   -1.4759004   0.35492529   -3.2604515    1.7845511      1024000 
  384000    1.1886956   -3.2581463   -3.2581463   -1.4751065   0.35320177   -3.2581463    1.7830398      1024000 
  385000    1.1867706   -3.2550601   -3.2550601   -1.4749078    0.3511655   -3.2550601    1.7801523      1024000 
  386000     1.186707   -3.2547272   -3.2547272   -1.4746703   0.34819983   -3.2547272     1.780057      1024000 
  387000    1.1849871    -3.252208    -3.252208   -1.4747309   0.34218081    -3.252208    1.7774771      1024000 
  388000    1.1856674   -3.2524392   -3.2524392   -1.4739417   0.33811471   -3.2524392    1.7784975      1024000 
  389000    1.1844454   -3.2499858   -3.2499858   -1.4733213   0.33445979   -3.2499858    1.7766645      1024000 
  390000    1.1844469   -3.2487501   -3.2487501   -1.4720833   0.33120817   -3.2487501    1.7766667      1024000 
  391000    1.1838189   -3.2480399   -3.2480399   -1.4723151   0.32991441   -3.2480399    1.7757248      1024000 
  392000    1.1809933   -3.2447427   -3.2447427   -1.4732563   0.32523414   -3.2447427    1.7714863      1024000 
  393000    1.1801185   -3.2436229   -3.2436229   -1.4734487   0.32629218   -3.2436229    1.7701742      1024000 
  394000    1.1800372   -3.2423756   -3.2423756   -1.4723234   0.32090462   -3.2423756    1.7700522      1024000 
  395000     1.179237   -3.2410857   -3.2410857   -1.4722338   0.32049028   -3.2410857    1.7688519      1024000 
  396000    1.1803035   -3.2418525   -3.2418525   -1.4714008   0.31384879   -3.2418525    1.7704517      1024000 
  397000    1.1793109   -3.2392472   -3.2392472   -1.4702845   0.31747067   -3.2392472    1.7689627      1024000 
  398000    1.1778325   -3.2369164   -3.2369164   -1.4701712    0.3116097   -3.2369164    1.7667452      1024000 
  399000    1.1773466    -3.235615    -3.235615   -1.4695987   0.31360026    -3.235615    1.7660164      1024000 
  400000    1.1780883   -3.2361614   -3.2361614   -1.4690326   0.31140374   -3.2361614    1.7671288      1024000 
  401000    1.1771868   -3.2338153   -3.2338153   -1.4680386   0.30878672   -3.2338153    1.7657767      1024000 
  402000    1.1777472   -3.2324029   -3.2324029   -1.4657857   0.31031142   -3.2324029    1.7666172      1024000 
  403000    1.1777783    -3.232134    -3.232134   -1.4654701   0.30577177    -3.232134    1.7666638      1024000 
  404000     1.176955   -3.2310968   -3.2310968   -1.4656679   0.30959206   -3.2310968    1.7654289      1024000 
  405000    1.1776597   -3.2313466   -3.2313466   -1.4648607   0.30706387   -3.2313466    1.7664859      1024000 
  406000    1.1771742   -3.2297019   -3.2297019   -1.4639441   0.31585261   -3.2297019    1.7657578      1024000 
  407000    1.1788992   -3.2319921   -3.2319921   -1.4636468   0.31324957   -3.2319921    1.7683452      1024000 
  408000    1.1784208    -3.229985    -3.229985   -1.4623574   0.31175068    -3.229985    1.7676275      1024000 
  409000    1.1778908   -3.2308711   -3.2308711   -1.4640385   0.31376983   -3.2308711    1.7668326      1024000 
  410000    1.1794755   -3.2321056   -3.2321056   -1.4628959   0.31119813   -3.2321056    1.7692097      1024000 
  411000    1.1798293   -3.2312883   -3.2312883    -1.461548   0.31816414   -3.2312883    1.7697404      1024000 
  412000    1.1815949   -3.2327182   -3.2327182   -1.4603293    0.3205849   -3.2327182    1.7723888      1024000 
  413000    1.1823122   -3.2336589   -3.2336589   -1.4601942   0.31977494   -3.2336589    1.7734647      1024000 
  414000    1.1825869   -3.2331728   -3.2331728    -1.459296    0.3306946   -3.2331728    1.7738767      1024000 
  415000    1.1828328   -3.2342241   -3.2342241   -1.4599785   0.33576085   -3.2342241    1.7742456      1024000 
  416000    1.1856102   -3.2361104   -3.2361104   -1.4576986   0.32898789   -3.2361104    1.7784118      1024000 
  417000    1.1856122   -3.2348695   -3.2348695   -1.4564548   0.33444979   -3.2348695    1.7784147      1024000 
  418000    1.1872325   -3.2371687   -3.2371687   -1.4563235   0.33604515   -3.2371687    1.7808452      1024000 
  419000    1.1887278    -3.237243    -3.237243   -1.4541548   0.33757646    -3.237243    1.7830881      1024000 
  420000    1.1894501   -3.2381287   -3.2381287   -1.4539572   0.34120199   -3.2381287    1.7841715      1024000 
  421000    1.1912795   -3.2398808   -3.2398808   -1.4529652   0.34316453   -3.2398808    1.7869156      1024000 
  422000    1.1905064   -3.2375759   -3.2375759     -1.45182   0.35121706   -3.2375759    1.7857559      1024000 
  423000    1.1911938   -3.2366841   -3.2366841   -1.4498971    0.3556365   -3.2366841     1.786787      1024000 
  424000     1.194797   -3.2410819   -3.2410819     -1.44889   0.34952319   -3.2410819    1.7921919      1024000 
  425000     1.193525   -3.2383985   -3.2383985   -1.4481147   0.35708515   -3.2383985    1.7902839      1024000 
  426000    1.1952193   -3.2388308   -3.2388308   -1.4460055   0.35573764   -3.2388308    1.7928253      1024000 
  427000    1.1969598    -3.240956    -3.240956     -1.44552   0.36019905    -3.240956     1.795436      1024000 
  428000    1.1972437   -3.2409095   -3.2409095   -1.4450476   0.35592922   -3.2409095    1.7958619      1024000 
  429000    1.1973081   -3.2404941   -3.2404941   -1.4445356   0.35939941   -3.2404941    1.7959585      1024000 
  430000    1.1978557   -3.2394119   -3.2394119    -1.442632   0.36538962   -3.2394119    1.7967799      1024000 
  431000    1.1994097   -3.2402646   -3.2402646   -1.4411537   0.35996695   -3.2402646    1.7991109      1024000 
  432000    1.1989253   -3.2391189   -3.2391189   -1.4407346    0.3551656   -3.2391189    1.7983843      1024000 
  433000    1.1976876    -3.236685    -3.236685   -1.4401573    0.3602292    -3.236685    1.7965277      1024000 
  434000    1.1995624   -3.2382773   -3.2382773   -1.4389373   0.35361403   -3.2382773      1.79934      1024000 
  435000    1.1991942     -3.23739     -3.23739   -1.4386025    0.3514435     -3.23739    1.7987876      1024000 
  436000    1.1988057   -3.2361038   -3.2361038   -1.4378989   0.35272701   -3.2361038    1.7982049      1024000 
  437000    1.1988316   -3.2343578   -3.2343578   -1.4361141   0.35655086   -3.2343578    1.7982437      1024000 
  438000    1.1975267   -3.2323577   -3.2323577   -1.4360713   0.34713042   -3.2323577    1.7962864      1024000 
  439000    1.1979728    -3.232087    -3.232087   -1.4351314    0.3434783    -3.232087    1.7969556      1024000 
  440000    1.1966359   -3.2301153   -3.2301153    -1.435165   0.34567729   -3.2301153    1.7949502      1024000 
  441000    1.1945747   -3.2268917   -3.2268917   -1.4350333   0.34687442   -3.2268917    1.7918583      1024000 
  442000    1.1936891   -3.2262053   -3.2262053   -1.4356753   0.34266853   -3.2262053      1.79053      1024000 
  443000    1.1927423    -3.224628    -3.224628   -1.4355181   0.34388503    -3.224628    1.7891099      1024000 
  444000    1.1930462   -3.2233508   -3.2233508   -1.4337851   0.34006837   -3.2233508    1.7895657      1024000 
  445000    1.1940903   -3.2252741   -3.2252741   -1.4341423   0.33257194   -3.2252741    1.7911318      1024000 
  446000    1.1930955   -3.2233288   -3.2233288   -1.4336892    0.3285734   -3.2233288    1.7896397      1024000 
  447000    1.1914484   -3.2192948   -3.2192948   -1.4321259   0.33600571   -3.2192948    1.7871689      1024000 
  448000    1.1910851    -3.219621    -3.219621    -1.432997   0.33021419    -3.219621     1.786624      1024000 
  449000    1.1897206   -3.2165254   -3.2165254   -1.4319481   0.33567043   -3.2165254    1.7845773      1024000 
  450000    1.1898945   -3.2166705   -3.2166705   -1.4318323   0.33009791   -3.2166705    1.7848382      1024000 
  451000    1.1914418   -3.2187562   -3.2187562   -1.4315971   0.32876811   -3.2187562    1.7871591      1024000 
  452000    1.1896264   -3.2157412   -3.2157412   -1.4313053   0.33006604   -3.2157412     1.784436      1024000 
  453000    1.1900228   -3.2155307   -3.2155307   -1.4305001   0.32592397   -3.2155307    1.7850306      1024000 
  454000    1.1914554   -3.2169709   -3.2169709   -1.4297914   0.32213032   -3.2169709    1.7871794      1024000 
  455000    1.1903804   -3.2149764   -3.2149764   -1.4294094   0.32883677   -3.2149764     1.785567      1024000 
  456000    1.1911761   -3.2150646   -3.2150646   -1.4283041   0.32456447   -3.2150646    1.7867605      1024000 
  457000    1.1903852   -3.2126113   -3.2126113   -1.4270371   0.33159382   -3.2126113    1.7855742      1024000 
  458000    1.1918084   -3.2135897   -3.2135897   -1.4258808   0.33256461   -3.2135897    1.7877089      1024000 
  459000    1.1924804   -3.2149098   -3.2149098   -1.4261928   0.32614667   -3.2149098     1.788717      1024000 
  460000    1.1925668   -3.2137591   -3.2137591   -1.4249126   0.33951198   -3.2137591    1.7888465      1024000 
  461000    1.1928417    -3.214149    -3.214149   -1.4248901   0.33637294    -3.214149    1.7892589      1024000 
  462000     1.193856   -3.2145783   -3.2145783    -1.423798   0.33440266   -3.2145783    1.7907804      1024000 
  463000    1.1935267   -3.2137529   -3.2137529   -1.4234665   0.34094586   -3.2137529    1.7902864      1024000 
  464000    1.1963531   -3.2166299   -3.2166299   -1.4221038   0.33754024   -3.2166299    1.7945261      1024000 
  465000    1.1955426   -3.2142523   -3.2142523   -1.4209421    0.3421105   -3.2142523    1.7933102      1024000 
  466000    1.1963651   -3.2142434   -3.2142434   -1.4196993    0.3420139   -3.2142434    1.7945441      1024000 
  467000    1.1976809   -3.2170371   -3.2170371   -1.4205193   0.33984305   -3.2170371    1.7965177      1024000 
  468000    1.1957232     -3.21358     -3.21358   -1.4199988   0.34473502     -3.21358    1.7935812      1024000 
  469000    1.1983708   -3.2164193   -3.2164193   -1.4188667   0.34254715   -3.2164193    1.7975526      1024000 
  470000    1.1988284   -3.2154761   -3.2154761   -1.4172371   0.35052452   -3.2154761     1.798239      1024000 
  471000    1.1997823   -3.2161813   -3.2161813   -1.4165115   0.35599845   -3.2161813    1.7996698      1024000 
  472000    1.1996071   -3.2154457   -3.2154457   -1.4160387   0.35820471   -3.2154457     1.799407      1024000 
  473000    1.2015609   -3.2180007   -3.2180007    -1.415663   0.35345021   -3.2180007    1.8023377      1024000 
  474000    1.2025218   -3.2184345   -3.2184345   -1.4146554   0.35871852   -3.2184345    1.8037791      1024000 
  475000    1.2031065   -3.2178016   -3.2178016   -1.4131456   0.35706608   -3.2178016     1.804656      1024000 
  476000    1.2030796   -3.2164846   -3.2164846   -1.4118689   0.36272451   -3.2164846    1.8046157      1024000 
  477000     1.203445   -3.2174286   -3.2174286   -1.4122648   0.35462825   -3.2174286    1.8051638      1024000 
  478000    1.2043232   -3.2170215   -3.2170215   -1.4105404   0.35852563   -3.2170215    1.8064811      1024000 
  479000    1.2065684   -3.2175407   -3.2175407   -1.4076918   0.35981585   -3.2175407    1.8098489      1024000 
  480000    1.2075226   -3.2187701   -3.2187701   -1.4074899   0.35428994   -3.2187701    1.8112802      1024000 
  481000    1.2064697   -3.2163454   -3.2163454   -1.4066445   0.36627787   -3.2163454     1.809701      1024000 
  482000    1.2061567     -3.21632     -3.21632   -1.4070887   0.35694112     -3.21632    1.8092314      1024000 
  483000    1.2073223   -3.2171032   -3.2171032   -1.4061235   0.36088064   -3.2171032    1.8109797      1024000 
  484000    1.2046841   -3.2134812   -3.2134812   -1.4064588   0.36600814   -3.2134812    1.8070224      1024000 
  485000    1.2068632   -3.2159712   -3.2159712   -1.4056801   0.35273442   -3.2159712    1.8102912      1024000 
  486000    1.2063712   -3.2136738   -3.2136738   -1.4041207   0.35704609   -3.2136738    1.8095532      1024000 
  487000    1.2067138   -3.2124633   -3.2124633   -1.4023964    0.3587416   -3.2124633     1.810067      1024000 
  488000    1.2047404   -3.2096195   -3.2096195   -1.4025126    0.3617556   -3.2096195    1.8071069      1024000 
  489000    1.2067939   -3.2124152   -3.2124152    -1.402228   0.35247745   -3.2124152    1.8101872      1024000 
  490000    1.2053085   -3.2098803   -3.2098803   -1.4019212   0.35492554   -3.2098803    1.8079591      1024000 
  491000    1.2048083   -3.2087887   -3.2087887     -1.40158   0.35954601   -3.2087887    1.8072087      1024000 
  492000    1.2049843   -3.2085495   -3.2085495   -1.4010767   0.34675078   -3.2085495    1.8074728      1024000 
  493000    1.2036184   -3.2062482   -3.2062482   -1.4008243   0.34890265   -3.2062482    1.8054239      1024000 
  494000    1.2043041   -3.2055917   -3.2055917   -1.3991392   0.34540703   -3.2055917    1.8064525      1024000 
  495000    1.2034657   -3.2037926   -3.2037926   -1.3985978   0.35306919   -3.2037926    1.8051948      1024000 
  496000    1.2023141    -3.201184    -3.201184   -1.3977166   0.34836761    -3.201184    1.8034674      1024000 
  497000    1.2020956   -3.2003589   -3.2003589   -1.3972192   0.35016399   -3.2003589    1.8031397      1024000 
  498000     1.202881   -3.2004662   -3.2004662   -1.3961483   0.34135224   -3.2004662    1.8043179      1024000 
  499000    1.2014324   -3.1990752   -3.1990752   -1.3969303   0.34297582   -3.1990752    1.8021449      1024000 
  500000    1.2018616   -3.1997678   -3.1997678   -1.3969792   0.34220823   -3.1997678    1.8027887      1024000 
  501000    1.1998616   -3.1973611   -3.1973611   -1.3975724   0.34217873   -3.1973611    1.7997887      1024000 
  502000    1.2014492   -3.1989875   -3.1989875   -1.3968173   0.34425536   -3.1989875    1.8021702      1024000 
  503000    1.2008532   -3.1972476   -3.1972476   -1.3959715   0.34254584   -3.1972476    1.8012761      1024000 
  504000    1.2013799   -3.1971257   -3.1971257   -1.3950595   0.34135903   -3.1971257    1.8020662      1024000 
  505000    1.2025428   -3.1984286   -3.1984286   -1.3946181    0.3380013   -3.1984286    1.8038105      1024000 
  506000    1.2019332   -3.1966721   -3.1966721    -1.393776   0.33843483   -3.1966721    1.8028961      1024000 
  507000    1.2014664   -3.1959746   -3.1959746   -1.3937787   0.34381848   -3.1959746    1.8021959      1024000 
  508000      1.20144   -3.1946564   -3.1946564   -1.3925001   0.34475068   -3.1946564    1.8021564      1024000 
  509000    1.2029124   -3.1958853   -3.1958853   -1.3915204   0.34320779   -3.1958853    1.8043649      1024000 
  510000    1.2040589   -3.1967332   -3.1967332   -1.3906485     0.335539   -3.1967332    1.8060846      1024000 
  511000    1.2029617   -3.1943301   -3.1943301   -1.3898913   0.34315894   -3.1943301    1.8044388      1024000 
  512000    1.2045319   -3.1961547   -3.1961547   -1.3893606   0.34030278   -3.1961547    1.8067941      1024000 
  513000    1.2041548   -3.1951921   -3.1951921   -1.3889636   0.33876127   -3.1951921    1.8062286      1024000 
  514000    1.2039829   -3.1937831   -3.1937831   -1.3878125   0.34938894   -3.1937831    1.8059706      1024000 
  515000    1.2041439   -3.1933737   -3.1933737   -1.3871615   0.34671107   -3.1933737    1.8062122      1024000 
  516000    1.2057585    -3.195235    -3.195235   -1.3866009    0.3453615    -3.195235    1.8086341      1024000 
  517000    1.2079297   -3.1967604   -3.1967604   -1.3848695    0.3569533   -3.1967604    1.8118909      1024000 
  518000    1.2083178   -3.1970559   -3.1970559   -1.3845829   0.35123463   -3.1970559     1.812473      1024000 
  519000    1.2092585   -3.1976146   -3.1976146   -1.3837306   0.35283085   -3.1976146     1.813884      1024000 
  520000    1.2085167   -3.1947796   -3.1947796   -1.3820083   0.35764069   -3.1947796    1.8127713      1024000 
  521000    1.2093084   -3.1952349   -3.1952349    -1.381276   0.35849998   -3.1952349    1.8139589      1024000 
  522000    1.2102419   -3.1955565   -3.1955565   -1.3801973   0.35515285   -3.1955565    1.8153592      1024000 
  523000    1.2113873   -3.1959895   -3.1959895   -1.3789123   0.36117842   -3.1959895    1.8170772      1024000 
  524000    1.2119795   -3.1972058   -3.1972058   -1.3792402   0.36396814   -3.1972058    1.8179656      1024000 
  525000    1.2116515   -3.1966614   -3.1966614   -1.3791879   0.35777954   -3.1966614    1.8174735      1024000 
  526000    1.2116211   -3.1955719   -3.1955719   -1.3781439   0.36294121   -3.1955719    1.8174279      1024000 
  527000    1.2127595   -3.1967983   -3.1967983   -1.3776628   0.36054793   -3.1967983    1.8191355      1024000 
  528000    1.2129178   -3.1964103   -3.1964103   -1.3770372   0.36165082   -3.1964103     1.819373      1024000 
  529000    1.2135054   -3.1961822   -3.1961822   -1.3759278   0.36456428   -3.1961822    1.8202544      1024000 
  530000    1.2149003   -3.1965692   -3.1965692   -1.3742225   0.36241752   -3.1965692    1.8223467      1024000 
  531000    1.2145335    -3.195386    -3.195386   -1.3735894    0.3626359    -3.195386    1.8217966      1024000 
  532000    1.2155737   -3.1956467   -3.1956467   -1.3722898   0.36494486   -3.1956467    1.8233569      1024000 
  533000    1.2152741   -3.1940026   -3.1940026   -1.3710953   0.36711286   -3.1940026    1.8229074      1024000 
  534000    1.2151637   -3.1936495   -3.1936495   -1.3709076   0.36851894   -3.1936495    1.8227419      1024000 
  535000    1.2154933   -3.1930421   -3.1930421   -1.3698058   0.36744596   -3.1930421    1.8232363      1024000 
  536000    1.2165768   -3.1928997   -3.1928997   -1.3680382   0.36360439   -3.1928997    1.8248615      1024000 
  537000     1.215241   -3.1910407   -3.1910407   -1.3681829   0.37276705   -3.1910407    1.8228578      1024000 
  538000     1.216639   -3.1917253   -3.1917253   -1.3667705   0.36447823   -3.1917253    1.8249548      1024000 
  539000    1.2169201   -3.1915097   -3.1915097   -1.3661332   0.36345971   -3.1915097    1.8253765      1024000 
  540000    1.2161878   -3.1898266   -3.1898266   -1.3655486   0.36097108   -3.1898266     1.824278      1024000 
  541000    1.2158708    -3.188176    -3.188176   -1.3643735   0.35813435    -3.188176    1.8238025      1024000 
  542000    1.2155151   -3.1866898   -3.1866898   -1.3634209   0.35987071   -3.1866898    1.8232689      1024000 
  543000    1.2133524   -3.1834298   -3.1834298   -1.3634049   0.36404145   -3.1834298    1.8200249      1024000 
  544000    1.2132162   -3.1827952   -3.1827952   -1.3629746   0.36445409   -3.1827952    1.8198206      1024000 
  545000     1.215142   -3.1851335   -3.1851335   -1.3624241    0.3530894   -3.1851335    1.8227094      1024000 
  546000    1.2149919   -3.1844445   -3.1844445   -1.3619604   0.35371322   -3.1844445    1.8224841      1024000 
  547000    1.2134842   -3.1823534   -3.1823534   -1.3621308   0.35860489   -3.1823534    1.8202226      1024000 
  548000     1.214473   -3.1830428   -3.1830428    -1.361337   0.35466494   -3.1830428    1.8217058      1024000 
  549000     1.213819   -3.1820622   -3.1820622   -1.3613373   0.35343077   -3.1820622    1.8207248      1024000 
  550000    1.2133526   -3.1808894   -3.1808894   -1.3608642   0.35097587   -3.1808894    1.8200252      1024000 
  551000     1.213599   -3.1802792   -3.1802792   -1.3598845   0.35760488   -3.1802792    1.8203947      1024000 
  552000    1.2137893   -3.1801816   -3.1801816   -1.3595014   0.35305578   -3.1801816    1.8206802      1024000 
  553000    1.2129526   -3.1783774   -3.1783774   -1.3589522   0.35737251   -3.1783774    1.8194252      1024000 
  554000     1.214592    -3.179192    -3.179192   -1.3573077   0.34880296    -3.179192    1.8218843      1024000 
  555000    1.2149124   -3.1783834   -3.1783834   -1.3560185   0.35636107   -3.1783834    1.8223649      1024000 
  556000     1.214579   -3.1782216   -3.1782216   -1.3563568   0.35211787   -3.1782216    1.8218648      1024000 
  557000    1.2150693    -3.178847    -3.178847   -1.3562468   0.35266059    -3.178847    1.8226003      1024000 
  558000    1.2137947   -3.1770158   -3.1770158   -1.3563275   0.35778143   -3.1770158    1.8206883      1024000 
  559000    1.2144202   -3.1771785   -3.1771785   -1.3555518   0.35583502   -3.1771785    1.8216267      1024000 
  560000    1.2138004   -3.1761691   -3.1761691   -1.3554722   0.36051301   -3.1761691    1.8206969      1024000 
  561000    1.2148521   -3.1760987   -3.1760987   -1.3538242   0.35995763   -3.1760987    1.8222745      1024000 
  562000     1.215984   -3.1761219   -3.1761219   -1.3521496   0.35992926   -3.1761219    1.8239723      1024000 
  563000    1.2165318   -3.1769665   -3.1769665   -1.3521725   0.35959054   -3.1769665    1.8247939      1024000 
  564000    1.2170843   -3.1759825   -3.1759825   -1.3503598    0.3582075   -3.1759825    1.8256228      1024000 
  565000    1.2190342   -3.1782903   -3.1782903   -1.3497426   0.35824717   -3.1782903    1.8285476      1024000 
  566000     1.218111   -3.1767852   -3.1767852   -1.3496224   0.36382279   -3.1767852    1.8271627      1024000 
  567000    1.2186213   -3.1768727   -3.1768727   -1.3489444   0.36666011   -3.1768727    1.8279283      1024000 
  568000    1.2185897   -3.1758527   -3.1758527   -1.3479719   0.37014853   -3.1758527    1.8278808      1024000 
  569000    1.2209095   -3.1776191   -3.1776191   -1.3462585    0.3660366   -3.1776191    1.8313605      1024000 
  570000    1.2199524   -3.1757109   -3.1757109    -1.345786   0.36922443   -3.1757109    1.8299249      1024000 
  571000    1.2208342    -3.175582    -3.175582   -1.3443344   0.37124753    -3.175582    1.8312476      1024000 
  572000    1.2229944   -3.1773095   -3.1773095   -1.3428215   0.36606479   -3.1773095    1.8344879      1024000 
  573000    1.2217584   -3.1754252   -3.1754252   -1.3427913   0.36906775   -3.1754252    1.8326339      1024000 
  574000    1.2215067    -3.174358    -3.174358   -1.3421017     0.369013    -3.174358    1.8322564      1024000 
  575000    1.2210303   -3.1727151   -3.1727151   -1.3411734   0.37366324   -3.1727151    1.8315417      1024000 
  576000    1.2225988   -3.1746787   -3.1746787   -1.3407841   0.37016939   -3.1746787    1.8338945      1024000 
  577000    1.2228052   -3.1735075   -3.1735075   -1.3393035   0.37627171   -3.1735075     1.834204      1024000 
  578000    1.2232385   -3.1741394   -3.1741394   -1.3392853   0.37182335   -3.1741394     1.834854      1024000 
  579000    1.2236229   -3.1726423   -3.1726423   -1.3372118   0.37910414   -3.1726423    1.8354306      1024000 
  580000    1.2248233   -3.1745099   -3.1745099   -1.3372788   0.36902512   -3.1745099    1.8372312      1024000 
  581000    1.2248258   -3.1741179   -3.1741179   -1.3368829   0.36890019   -3.1741179     1.837235      1024000 
  582000    1.2246608   -3.1736633   -3.1736633   -1.3366759   0.37581558   -3.1736633    1.8369874      1024000 
  583000    1.2234421   -3.1719178   -3.1719178   -1.3367583   0.37016755   -3.1719178    1.8351595      1024000 
  584000    1.2232231   -3.1709238   -3.1709238   -1.3360928    0.3708972   -3.1709238    1.8348309      1024000 
  585000    1.2242576   -3.1714906   -3.1714906    -1.335108   0.37592818   -3.1714906    1.8363826      1024000 
  586000    1.2241666   -3.1702192   -3.1702192    -1.333973   0.37641836   -3.1702192    1.8362462      1024000 
  587000    1.2255792   -3.1706543   -3.1706543   -1.3322892   0.37247777   -3.1706543    1.8383651      1024000 
  588000    1.2262087   -3.1718293   -3.1718293     -1.33252   0.37043714   -3.1718293    1.8393093      1024000 
  589000    1.2250931   -3.1694723   -3.1694723   -1.3318363   0.37267618   -3.1694723    1.8376359      1024000 
  590000    1.2228883   -3.1673369   -3.1673369   -1.3330082   0.37439156   -3.1673369    1.8343287      1024000 
  591000    1.2228558   -3.1673095   -3.1673095   -1.3330296   0.37320448   -3.1673095    1.8342799      1024000 
  592000    1.2235947   -3.1683566   -3.1683566   -1.3329683   0.36594486   -3.1683566    1.8353884      1024000 
  593000    1.2215455   -3.1648919   -3.1648919   -1.3325774   0.36610848   -3.1648919    1.8323145      1024000 
  594000    1.2229774   -3.1655919   -3.1655919   -1.3311296   0.36647607   -3.1655919    1.8344623      1024000 
  595000    1.2222263   -3.1642035   -3.1642035   -1.3308677   0.36974146   -3.1642035    1.8333358      1024000 
  596000    1.2221234   -3.1627097   -3.1627097   -1.3295283   0.36881992   -3.1627097    1.8331814      1024000 
  597000    1.2235684   -3.1637843   -3.1637843   -1.3284354   0.36703964   -3.1637843    1.8353489      1024000 
  598000     1.224221   -3.1632162   -3.1632162   -1.3268885     0.364964   -3.1632162    1.8363277      1024000 
  599000    1.2253106   -3.1636794   -3.1636794   -1.3257171   0.36937236   -3.1636794    1.8379622      1024000 
  600000    1.2238031     -3.16117     -3.16117    -1.325469   0.36675861     -3.16117     1.835701      1024000 
  601000    1.2232349   -3.1623087   -3.1623087   -1.3274601   0.36059197   -3.1623087    1.8348486      1024000 
  602000    1.2232955   -3.1608192   -3.1608192   -1.3258796   0.36676785   -3.1608192    1.8349395      1024000 
  603000    1.2230501   -3.1583638   -3.1583638   -1.3237924    0.3644723   -3.1583638    1.8345714      1024000 
  604000    1.2235188   -3.1586872   -3.1586872   -1.3234126   0.35766388   -3.1586872    1.8352745      1024000 
  605000    1.2231881   -3.1569173   -3.1569173   -1.3221388   0.36365147   -3.1569173    1.8347785      1024000 
  606000    1.2250074   -3.1590706   -3.1590706   -1.3215632   0.36088305   -3.1590706    1.8375074      1024000 
  607000    1.2236865   -3.1576806   -3.1576806   -1.3221545   0.36406903   -3.1576806    1.8355261      1024000 
  608000    1.2238323   -3.1571468   -3.1571468   -1.3214022   0.36162941   -3.1571468    1.8357447      1024000 
  609000    1.2245941   -3.1577154   -3.1577154    -1.320828   0.36584208   -3.1577154    1.8368874      1024000 
  610000    1.2256736   -3.1576961   -3.1576961   -1.3191894   0.36417109   -3.1576961    1.8385067      1024000 
  611000    1.2257342   -3.1574329   -3.1574329   -1.3188353   0.36430887   -3.1574329    1.8385976      1024000 
  612000    1.2263434   -3.1577633   -3.1577633   -1.3182519   0.37131404   -3.1577633    1.8395113      1024000 
  613000    1.2245018   -3.1552036   -3.1552036   -1.3184547   0.36964657   -3.1552036    1.8367489      1024000 
  614000    1.2253451   -3.1567986   -3.1567986   -1.3187848   0.36481635   -3.1567986    1.8380139      1024000 
  615000    1.2257504   -3.1560529   -3.1560529    -1.317431   0.36672602   -3.1560529    1.8386219      1024000 
  616000    1.2264768   -3.1569649   -3.1569649   -1.3172535   0.36916807   -3.1569649    1.8397114      1024000 
  617000    1.2254239   -3.1543485   -3.1543485   -1.3162164   0.37051107   -3.1543485    1.8381321      1024000 
  618000    1.2281304   -3.1570534   -3.1570534   -1.3148616   0.36903029   -3.1570534    1.8421918      1024000 
  619000    1.2269763   -3.1542653   -3.1542653   -1.3138047    0.3743902   -3.1542653    1.8404607      1024000 
  620000    1.2284201   -3.1547003   -3.1547003   -1.3120739   0.37238335   -3.1547003    1.8426264      1024000 
  621000    1.2299631   -3.1555399   -3.1555399   -1.3105989   0.37779776   -3.1555399     1.844941      1024000 
  622000    1.2298379     -3.15596     -3.15596   -1.3112069   0.37505138     -3.15596    1.8447531      1024000 
  623000      1.23131    -3.156328    -3.156328   -1.3093668   0.37716555    -3.156328    1.8469612      1024000 
  624000    1.2307439   -3.1554523   -3.1554523   -1.3093402    0.3844386   -3.1554523    1.8461121      1024000 
  625000    1.2315578   -3.1575745   -3.1575745   -1.3102415   0.38006858   -3.1575745     1.847333      1024000 
  626000    1.2314915   -3.1559174   -3.1559174    -1.308684   0.38128026   -3.1559174    1.8472334      1024000 
  627000    1.2327343   -3.1563467   -3.1563467   -1.3072489   0.37952188   -3.1563467    1.8490978      1024000 
  628000    1.2326708   -3.1558612   -3.1558612   -1.3068587   0.37697577   -3.1558612    1.8490025      1024000 
  629000    1.2317534   -3.1541672   -3.1541672   -1.3065408   0.38201132   -3.1541672    1.8476263      1024000 
  630000    1.2318129   -3.1536765   -3.1536765   -1.3059609   0.38113714   -3.1536765    1.8477156      1024000 
  631000    1.2322623   -3.1534169   -3.1534169   -1.3050272   0.38026812   -3.1534169    1.8483897      1024000 
  632000    1.2337208   -3.1539134   -3.1539134    -1.303336   0.38139507   -3.1539134    1.8505774      1024000 
  633000    1.2336505   -3.1524005   -3.1524005   -1.3019285   0.38198337   -3.1524005     1.850472      1024000 
  634000    1.2339689   -3.1529665   -3.1529665    -1.302017   0.38085862   -3.1529665    1.8509495      1024000 
  635000    1.2339794   -3.1514974   -3.1514974    -1.300532     0.383404   -3.1514974    1.8509653      1024000 
  636000    1.2338609   -3.1510274   -3.1510274   -1.3002398   0.38362056   -3.1510274    1.8507876      1024000 
  637000    1.2332457   -3.1489842   -3.1489842   -1.2991194   0.38426959   -3.1489842    1.8498648      1024000 
  638000    1.2338346    -3.150008    -3.150008   -1.2992599   0.37748841    -3.150008    1.8507481      1024000 
  639000    1.2346108   -3.1503432   -3.1503432   -1.2984307   0.37586375   -3.1503432    1.8519125      1024000 
  640000    1.2347007   -3.1488332   -3.1488332   -1.2967859   0.37754226   -3.1488332    1.8520473      1024000 
  641000    1.2339409   -3.1470404   -3.1470404   -1.2961328   0.38244092   -3.1470404    1.8509076      1024000 
  642000    1.2341026   -3.1465583   -3.1465583   -1.2954081    0.3846591   -3.1465583    1.8511502      1024000 
  643000    1.2349899   -3.1470376   -3.1470376   -1.2945565   0.38424784   -3.1470376     1.852481      1024000 
  644000    1.2356265    -3.146266    -3.146266   -1.2928301   0.38219328    -3.146266    1.8534359      1024000 
  645000    1.2346402   -3.1451003   -3.1451003   -1.2931438   0.38058571   -3.1451003    1.8519565      1024000 
  646000    1.2346131   -3.1450063   -3.1450063   -1.2930905   0.38287381   -3.1450063    1.8519159      1024000 
  647000    1.2358144   -3.1466836   -3.1466836   -1.2929658   0.37232666   -3.1466836    1.8537178      1024000 
  648000    1.2360625   -3.1458746   -3.1458746   -1.2917847   0.37965066   -3.1458746    1.8540899      1024000 
  649000    1.2352648   -3.1451463   -3.1451463   -1.2922529    0.3794208   -3.1451463    1.8528934      1024000 
  650000    1.2343674   -3.1427356   -3.1427356   -1.2911882   0.38003264   -3.1427356    1.8515474      1024000 
  651000    1.2348848   -3.1422044   -3.1422044   -1.2898809    0.3784273   -3.1422044    1.8523235      1024000 
  652000    1.2361037   -3.1430391   -3.1430391   -1.2888873    0.3741489   -3.1430391    1.8541518      1024000 
  653000    1.2343517   -3.1405863   -3.1405863   -1.2890626   0.37979041   -3.1405863    1.8515237      1024000 
  654000    1.2354083   -3.1416009   -3.1416009   -1.2884922   0.37972432   -3.1416009    1.8531088      1024000 
  655000    1.2350701   -3.1404931   -3.1404931   -1.2878917   0.37841708   -3.1404931    1.8526014      1024000 
  656000    1.2363518   -3.1407678   -3.1407678   -1.2862438   0.38310645   -3.1407678    1.8545239      1024000 
  657000    1.2352003   -3.1389424   -3.1389424   -1.2861458   0.37778494   -3.1389424    1.8527966      1024000 
  658000    1.2351669   -3.1384701   -3.1384701   -1.2857235   0.37388474   -3.1384701    1.8527466      1024000 
  659000    1.2370357   -3.1401234   -3.1401234   -1.2845736   0.37155654   -3.1401234    1.8555498      1024000 
  660000    1.2367311   -3.1393844   -3.1393844   -1.2842915   0.37732625   -3.1393844    1.8550929      1024000 
  661000    1.2381881   -3.1408122   -3.1408122   -1.2835338   0.37569384   -3.1408122    1.8572784      1024000 
  662000     1.236198   -3.1368005   -3.1368005   -1.2825073   0.38229266   -3.1368005    1.8542932      1024000 
  663000     1.236982   -3.1379873   -3.1379873   -1.2825181   0.38010626   -3.1379873    1.8554692      1024000 
  664000    1.2378792   -3.1382184   -3.1382184   -1.2814033   0.37936056   -3.1382184     1.856815      1024000 
  665000    1.2389386   -3.1373708   -3.1373708   -1.2789667   0.38129013   -3.1373708    1.8584041      1024000 
  666000    1.2378531   -3.1361667   -3.1361667   -1.2793909   0.38182076   -3.1361667    1.8567758      1024000 
  667000    1.2390668   -3.1371614   -3.1371614   -1.2785651     0.385269   -3.1371614    1.8585964      1024000 
  668000    1.2391523   -3.1364919   -3.1364919   -1.2777672   0.38477093   -3.1364919    1.8587247      1024000 
  669000    1.2413523   -3.1384679   -3.1384679   -1.2764433   0.38902689   -3.1384679    1.8620246      1024000 
  670000    1.2414721   -3.1379336   -3.1379336   -1.2757292   0.38544039   -3.1379336    1.8622044      1024000 
  671000    1.2417793   -3.1382652   -3.1382652      -1.2756   0.38168866   -3.1382652    1.8626652      1024000 
  672000    1.2412316     -3.13741     -3.13741   -1.2755664    0.3803281     -3.13741    1.8618436      1024000 
  673000    1.2413393   -3.1379741   -3.1379741   -1.2759689   0.38668809   -3.1379741    1.8620052      1024000 
  674000    1.2406957   -3.1368803   -3.1368803   -1.2758405   0.38958888   -3.1368803    1.8610398      1024000 
  675000    1.2401931   -3.1347804   -3.1347804   -1.2744944   0.39146521   -3.1347804    1.8602859      1024000 
  676000     1.242175   -3.1363379   -3.1363379   -1.2730792   0.38724275   -3.1363379    1.8632588      1024000 
  677000    1.2434675   -3.1358062   -3.1358062   -1.2706087   0.39107151   -3.1358062    1.8651975      1024000 
  678000    1.2421659   -3.1339488   -3.1339488   -1.2707038   0.39148269   -3.1339488    1.8632451      1024000 
  679000    1.2430129   -3.1342209   -3.1342209   -1.2697054   0.38687222   -3.1342209    1.8645155      1024000 
  680000     1.243766   -3.1344802   -3.1344802    -1.268835    0.3844884   -3.1344802    1.8656453      1024000 
  681000    1.2432536   -3.1329903   -3.1329903   -1.2681137   0.39045496   -3.1329903    1.8648766      1024000 
  682000    1.2445957   -3.1347793   -3.1347793   -1.2678896   0.38782101   -3.1347793    1.8668897      1024000 
[...]
  837000    1.2784052    -3.077411    -3.077411   -1.1598072   0.42199399    -3.077411    1.9176039      1024000 
  838000     1.278282   -3.0774111   -3.0774111    -1.159992    0.4205666   -3.0774111    1.9174191      1024000 
  839000     1.278456   -3.0775879   -3.0775879   -1.1599079   0.41943675   -3.0775879      1.91768      1024000 
  840000    1.2781312   -3.0760864   -3.0760864   -1.1588935   0.41883241   -3.0760864    1.9171929      1024000 
  841000    1.2790583   -3.0771938   -3.0771938   -1.1586102   0.41476322   -3.0771938    1.9185836      1024000 
  842000     1.278526   -3.0753056   -3.0753056   -1.1575204   0.42423377   -3.0753056    1.9177852      1024000 
  843000    1.2799247   -3.0766308   -3.0766308   -1.1567477   0.42305392   -3.0766308    1.9198831      1024000 
  844000     1.279441   -3.0757055   -3.0757055   -1.1565479   0.41884859   -3.0757055    1.9191576      1024000 
  845000    1.2794475   -3.0748406   -3.0748406   -1.1556733   0.42121435   -3.0748406    1.9191673      1024000 
  846000    1.2807809   -3.0763355   -3.0763355    -1.155168    0.4242074   -3.0763355    1.9211675      1024000 
  847000    1.2806082   -3.0748592   -3.0748592   -1.1539507    0.4247309   -3.0748592    1.9209084      1024000 
  848000     1.279055    -3.072709    -3.072709   -1.1541304   0.42805151    -3.072709    1.9185786      1024000 
  849000    1.2813485   -3.0750295   -3.0750295   -1.1530107   0.42379825   -3.0750295    1.9220189      1024000 
  850000    1.2809059   -3.0740812   -3.0740812   -1.1527263   0.42113496   -3.0740812    1.9213549      1024000 
  851000    1.2805331   -3.0736569   -3.0736569   -1.1528612   0.42087321   -3.0736569    1.9207957      1024000 
  852000     1.281208   -3.0730641   -3.0730641    -1.151256   0.42310913   -3.0730641    1.9218081      1024000 
  853000    1.2815942   -3.0721819   -3.0721819   -1.1497944   0.42189486   -3.0721819    1.9223874      1024000 
  854000    1.2811466   -3.0719088   -3.0719088   -1.1501928   0.42170614   -3.0719088     1.921716      1024000 
  855000    1.2814385   -3.0704716   -3.0704716   -1.1483178   0.42896134   -3.0704716    1.9221538      1024000 
  856000    1.2828513   -3.0722117   -3.0722117   -1.1479387   0.41901952   -3.0722117     1.924273      1024000 
  857000    1.2828905    -3.070792    -3.070792   -1.1464601   0.42553106    -3.070792    1.9243319      1024000 
  858000    1.2828789   -3.0697694   -3.0697694    -1.145455   0.42922508   -3.0697694    1.9243144      1024000 
  859000    1.2839392   -3.0711449   -3.0711449   -1.1452401   0.43032123   -3.0711449    1.9259048      1024000 
  860000    1.2836885   -3.0699762   -3.0699762   -1.1444473   0.42307669   -3.0699762    1.9255289      1024000 
  861000    1.2836053   -3.0693701   -3.0693701   -1.1439661   0.42583446   -3.0693701     1.925404      1024000 
  862000    1.2850106   -3.0716784   -3.0716784   -1.1441664   0.42018704   -3.0716784    1.9275119      1024000 
  863000    1.2841382    -3.068293    -3.068293   -1.1420896   0.43174399    -3.068293    1.9262034      1024000 
  864000    1.2838943   -3.0677104   -3.0677104   -1.1418728   0.43045635   -3.0677104    1.9258376      1024000 
  865000    1.2849171   -3.0690199   -3.0690199    -1.141648   0.42391401   -3.0690199    1.9273718      1024000 
  866000    1.2832117   -3.0657645   -3.0657645   -1.1409508   0.43300871   -3.0657645    1.9248137      1024000 
  867000    1.2838938   -3.0664777   -3.0664777    -1.140641   0.42701881   -3.0664777    1.9258368      1024000 
  868000    1.2849794   -3.0677262   -3.0677262    -1.140261   0.42394383   -3.0677262    1.9274651      1024000 
  869000     1.284795   -3.0674953   -3.0674953   -1.1403068   0.42658353   -3.0674953    1.9271885      1024000 
  870000    1.2850476   -3.0659678   -3.0659678   -1.1384004   0.42636373   -3.0659678    1.9275674      1024000 
  871000    1.2846706   -3.0651371   -3.0651371   -1.1381352   0.43345052   -3.0651371    1.9270019      1024000 
  872000    1.2840396    -3.064146    -3.064146   -1.1380904   0.43497795    -3.064146    1.9260555      1024000 
  873000    1.2859657   -3.0657407   -3.0657407    -1.136796   0.42745923   -3.0657407    1.9289446      1024000 
  874000    1.2864732   -3.0664182   -3.0664182   -1.1367124    0.4265468   -3.0664182    1.9297059      1024000 
  875000    1.2859007   -3.0651926   -3.0651926   -1.1363454   0.42974786   -3.0651926    1.9288472      1024000 
  876000    1.2869639    -3.066382    -3.066382     -1.13594    0.4263991    -3.066382    1.9304419      1024000 
  877000    1.2845008   -3.0617209   -3.0617209   -1.1349735   0.43196284   -3.0617209    1.9267473      1024000 
  878000    1.2883075   -3.0658446   -3.0658446   -1.1333873   0.42600313   -3.0658446    1.9324573      1024000 
  879000    1.2885179   -3.0646657   -3.0646657   -1.1318928    0.4273125   -3.0646657    1.9327729      1024000 
  880000    1.2876166   -3.0621858   -3.0621858   -1.1307648   0.43155852   -3.0621858     1.931421      1024000 
  881000    1.2885123   -3.0630701   -3.0630701   -1.1303056   0.42990883   -3.0630701    1.9327645      1024000 
  882000    1.2899003   -3.0641179   -3.0641179   -1.1292714   0.42736095   -3.0641179    1.9348465      1024000 
  883000    1.2884326   -3.0608764   -3.0608764   -1.1282314   0.43055476   -3.0608764     1.932645      1024000 
  884000    1.2878659   -3.0602767   -3.0602767   -1.1284817   0.43688116   -3.0602767     1.931795      1024000 
  885000    1.2877302   -3.0587225   -3.0587225   -1.1271311   0.43610435   -3.0587225    1.9315915      1024000 
  886000    1.2895774   -3.0609516   -3.0609516   -1.1265895   0.42983433   -3.0609516    1.9343622      1024000 
  887000    1.2908505   -3.0619714   -3.0619714   -1.1256996   0.42680825   -3.0619714    1.9362718      1024000 
  888000    1.2885416   -3.0592125   -3.0592125   -1.1264039    0.4312272   -3.0592125    1.9328085      1024000 
  889000    1.2895537   -3.0604031   -3.0604031   -1.1260764   0.43350879   -3.0604031    1.9343267      1024000 
  890000    1.2896821   -3.0592443   -3.0592443   -1.1247251   0.43527603   -3.0592443    1.9345192      1024000 
  891000     1.289233   -3.0578051   -3.0578051   -1.1239596   0.43464223   -3.0578051    1.9338455      1024000 
  892000    1.2916593   -3.0595986   -3.0595986   -1.1221135   0.43401796   -3.0595986    1.9374851      1024000 
  893000     1.291785     -3.05893     -3.05893   -1.1212564   0.43599743     -3.05893    1.9376735      1024000 
  894000    1.2913421   -3.0583579   -3.0583579   -1.1213487   0.43128864   -3.0583579    1.9370092      1024000 
  895000    1.2907835   -3.0580097   -3.0580097   -1.1218385    0.4360976   -3.0580097    1.9361713      1024000 
  896000    1.2902943   -3.0565645   -3.0565645    -1.121127   0.43513575   -3.0565645    1.9354375      1024000 
  897000    1.2898747   -3.0557245   -3.0557245   -1.1209163    0.4355074   -3.0557245    1.9348082      1024000 
  898000    1.2921416    -3.058932    -3.058932   -1.1207236   0.42810675    -3.058932    1.9382084      1024000 
  899000    1.2900523   -3.0547749   -3.0547749   -1.1197005   0.43954907   -3.0547749    1.9350745      1024000 
  900000    1.2922025   -3.0569293   -3.0569293   -1.1186295    0.4356914   -3.0569293    1.9382998      1024000 
  901000    1.2916997   -3.0562159   -3.0562159   -1.1186702   0.43492073   -3.0562159    1.9375457      1024000 
  902000    1.2911805   -3.0544804   -3.0544804   -1.1177136   0.43323903   -3.0544804    1.9367668      1024000 
  903000    1.2911602   -3.0538673   -3.0538673   -1.1171309   0.43804181   -3.0538673    1.9367364      1024000 
  904000    1.2930864   -3.0551731   -3.0551731   -1.1155474   0.43368097   -3.0551731    1.9396257      1024000 
  905000    1.2932209   -3.0548569   -3.0548569   -1.1150295   0.43899252   -3.0548569    1.9398274      1024000 
  906000    1.2933913   -3.0545384   -3.0545384   -1.1144553   0.44253435   -3.0545384    1.9400831      1024000 
  907000    1.2934251   -3.0544381   -3.0544381   -1.1143044   0.43724793   -3.0544381    1.9401337      1024000 
  908000    1.2942265   -3.0540409   -3.0540409    -1.112705   0.44143503   -3.0540409    1.9413358      1024000 
  909000    1.2951315   -3.0542418   -3.0542418   -1.1115485   0.43631396   -3.0542418    1.9426934      1024000 
  910000    1.2946952   -3.0530897   -3.0530897   -1.1110509   0.43754648   -3.0530897    1.9420388      1024000 
  911000    1.2947877   -3.0534116   -3.0534116    -1.111234   0.43918056   -3.0534116    1.9421776      1024000 
  912000    1.2951192   -3.0513375   -3.0513375   -1.1086626   0.43932296   -3.0513375    1.9426748      1024000 
  913000    1.2950698   -3.0521583   -3.0521583   -1.1095576   0.43621028   -3.0521583    1.9426007      1024000 
  914000    1.2946773   -3.0496037   -3.0496037   -1.1075916   0.43846816   -3.0496037    1.9420121      1024000 
  915000    1.2949968   -3.0499564   -3.0499564   -1.1074651   0.43749565   -3.0499564    1.9424913      1024000 
  916000    1.2960649   -3.0497615   -3.0497615   -1.1056681   0.44189358   -3.0497615    1.9440934      1024000 
  917000    1.2961762   -3.0504019   -3.0504019   -1.1061415   0.43757304   -3.0504019    1.9442604      1024000 
  918000    1.2953617   -3.0492547   -3.0492547   -1.1062162   0.44123812   -3.0492547    1.9430385      1024000 
  919000    1.2962971   -3.0500514   -3.0500514   -1.1056096   0.44173989   -3.0500514    1.9444418      1024000 
  920000    1.2953878    -3.049784    -3.049784   -1.1067061   0.43752298    -3.049784    1.9430778      1024000 
  921000    1.2965053   -3.0500672   -3.0500672   -1.1053132   0.43670038   -3.0500672    1.9447539      1024000 
  922000    1.2959908   -3.0500461   -3.0500461   -1.1060638   0.43713864   -3.0500461    1.9439823      1024000 
  923000    1.2950679   -3.0481635   -3.0481635   -1.1055655   0.43922085   -3.0481635    1.9425979      1024000 
  924000     1.296385    -3.048841    -3.048841   -1.1042675   0.43608508    -3.048841    1.9445735      1024000 
  925000    1.2964869    -3.047635    -3.047635   -1.1029087   0.44384662    -3.047635    1.9447263      1024000 
  926000    1.2966188   -3.0477274   -3.0477274    -1.102803   0.43962225   -3.0477274    1.9449243      1024000 
  927000    1.2978214   -3.0476167   -3.0476167   -1.1008886   0.44245971   -3.0476167    1.9467281      1024000 
  928000    1.2986059   -3.0472241   -3.0472241   -1.0993193   0.43799943   -3.0472241    1.9479048      1024000 
  929000    1.2991824   -3.0472552   -3.0472552   -1.0984855   0.44070478   -3.0472552    1.9487697      1024000 
  930000     1.298573    -3.045468    -3.045468   -1.0976124   0.44003898    -3.045468    1.9478555      1024000 
  931000    1.2967317   -3.0420553   -3.0420553   -1.0969617   0.44402986   -3.0420553    1.9450936      1024000 
  932000    1.2982426   -3.0440838   -3.0440838   -1.0967238   0.44457474   -3.0440838    1.9473599      1024000 
  933000    1.2993391   -3.0431699   -3.0431699   -1.0941653   0.44102958   -3.0431699    1.9490046      1024000 
  934000    1.3001099   -3.0445133   -3.0445133   -1.0943523    0.4410477   -3.0445133    1.9501609      1024000 
  935000    1.2993225   -3.0421255   -3.0421255   -1.0931457   0.44699334   -3.0421255    1.9489798      1024000 
  936000    1.2990638   -3.0411556   -3.0411556   -1.0925638   0.44717589   -3.0411556    1.9485918      1024000 
  937000    1.3004126   -3.0429556   -3.0429556   -1.0923407   0.44243345   -3.0429556    1.9506149      1024000 
  938000    1.3007862   -3.0434474   -3.0434474   -1.0922721   0.44804514   -3.0434474    1.9511753      1024000 
  939000    1.3009343   -3.0437472   -3.0437472   -1.0923498   0.44121764   -3.0437472    1.9513974      1024000 
  940000     1.301066   -3.0434024   -3.0434024   -1.0918074   0.43907477   -3.0434024     1.951595      1024000 
  941000    1.3017734   -3.0434505   -3.0434505   -1.0907944   0.44300276   -3.0434505    1.9526561      1024000 
  942000    1.3030246   -3.0432454   -3.0432454   -1.0887125    0.4457479   -3.0432454    1.9545329      1024000 
  943000    1.3048388   -3.0453349   -3.0453349   -1.0880806   0.43973075   -3.0453349    1.9572543      1024000 
  944000     1.302178   -3.0421971   -3.0421971   -1.0889341   0.44460152   -3.0421971     1.953263      1024000 
  945000    1.3017203   -3.0407039   -3.0407039   -1.0881274    0.4492764   -3.0407039    1.9525765      1024000 
  946000    1.3012982   -3.0416314   -3.0416314    -1.089688   0.44191365   -3.0416314    1.9519433      1024000 
  947000    1.3015269   -3.0401374   -3.0401374    -1.087851   0.44538405   -3.0401374    1.9522864      1024000 
  948000    1.3016894   -3.0391076   -3.0391076   -1.0865774   0.44816925   -3.0391076    1.9525302      1024000 
  949000    1.3026868   -3.0386484   -3.0386484   -1.0846221   0.45482321   -3.0386484    1.9540263      1024000 
  950000    1.3033199   -3.0395697   -3.0395697   -1.0845939   0.44878385   -3.0395697    1.9549758      1024000 
  951000    1.3047231   -3.0408281   -3.0408281   -1.0837474   0.44547795   -3.0408281    1.9570807      1024000 
  952000    1.3024599   -3.0384135   -3.0384135   -1.0847277   0.45466149   -3.0384135    1.9536858      1024000 
  953000    1.3035672   -3.0392613   -3.0392613   -1.0839145   0.44897402   -3.0392613    1.9553468      1024000 
  954000    1.3039345   -3.0393459   -3.0393459   -1.0834481   0.44443463   -3.0393459    1.9558978      1024000 
  955000    1.3043106    -3.038914    -3.038914    -1.082452   0.43928481    -3.038914     1.956462      1024000 
  956000    1.3047998    -3.039191    -3.039191   -1.0819952   0.44897532    -3.039191    1.9571958      1024000 
  957000    1.3044348   -3.0369899   -3.0369899   -1.0803417   0.45192145   -3.0369899    1.9566482      1024000 
  958000    1.3068217   -3.0377897   -3.0377897   -1.0775612   0.45259902   -3.0377897    1.9602285      1024000 
  959000    1.3085262   -3.0393764   -3.0393764   -1.0765911   0.44403255   -3.0393764    1.9627853      1024000 
  960000    1.3060718   -3.0355401   -3.0355401   -1.0764363   0.44952559   -3.0355401    1.9591038      1024000 
  961000    1.3076129   -3.0364794   -3.0364794    -1.075064   0.45046714   -3.0364794    1.9614154      1024000 
  962000    1.3066723   -3.0343905   -3.0343905    -1.074386   0.45554646   -3.0343905    1.9600045      1024000 
  963000    1.3085936   -3.0372815   -3.0372815   -1.0743951   0.45173825   -3.0372815    1.9628864      1024000 
  964000    1.3072282    -3.034283    -3.034283   -1.0734447   0.45510766    -3.034283    1.9608383      1024000 
  965000    1.3061796   -3.0328445   -3.0328445   -1.0735791   0.44920471   -3.0328445    1.9592654      1024000 
  966000    1.3073261   -3.0351034   -3.0351034   -1.0741183   0.45098688   -3.0351034    1.9609851      1024000 
  967000    1.3074408   -3.0342603   -3.0342603   -1.0731031   0.45116638   -3.0342603    1.9611573      1024000 
  968000    1.3088185   -3.0341425   -3.0341425   -1.0709187   0.45319042   -3.0341425    1.9632238      1024000 
  969000    1.3078772   -3.0318567   -3.0318567   -1.0700449   0.45497293   -3.0318567    1.9618118      1024000 
  970000    1.3082671   -3.0330165   -3.0330165   -1.0706199   0.45516402   -3.0330165    1.9623966      1024000 
  971000    1.3083805    -3.032203    -3.032203   -1.0696362   0.45161854    -3.032203    1.9625668      1024000 
  972000    1.3081713   -3.0320897   -3.0320897   -1.0698367   0.45173494   -3.0320897     1.962253      1024000 
  973000    1.3110269   -3.0343061   -3.0343061   -1.0677698   0.44851068   -3.0343061    1.9665363      1024000 
  974000     1.308748    -3.031394    -3.031394    -1.068276   0.44975969    -3.031394     1.963118      1024000 
  975000    1.3086366   -3.0305207   -3.0305207   -1.0675698    0.4537113   -3.0305207    1.9629509      1024000 
  976000    1.3097397   -3.0313534   -3.0313534   -1.0667479   0.45071774   -3.0313534    1.9646055      1024000 
  977000    1.3101088    -3.030169    -3.030169   -1.0650098   0.45238627    -3.030169    1.9651592      1024000 
  978000    1.3089109   -3.0293036   -3.0293036   -1.0659412    0.4517571   -3.0293036    1.9633624      1024000 
  979000    1.3095746    -3.030256    -3.030256   -1.0658981   0.44796214    -3.030256    1.9643579      1024000 
  980000    1.3090883   -3.0290729   -3.0290729   -1.0654445   0.45309191   -3.0290729    1.9636284      1024000 
  981000    1.3103674   -3.0283362   -3.0283362    -1.062789   0.45402274   -3.0283362    1.9655472      1024000 
  982000      1.31039   -3.0284291   -3.0284291   -1.0628482   0.44837411   -3.0284291    1.9655809      1024000 
  983000     1.310279   -3.0285568   -3.0285568   -1.0631423   0.45497436   -3.0285568    1.9654145      1024000 
  984000    1.3106812   -3.0276741   -3.0276741   -1.0616563   0.45407509   -3.0276741    1.9660178      1024000 
  985000    1.3113313   -3.0284025   -3.0284025   -1.0614095   0.45459074   -3.0284025     1.966993      1024000 
  986000    1.3126476    -3.028844    -3.028844   -1.0598765   0.45283044    -3.028844    1.9689675      1024000 
  987000     1.311836   -3.0272728   -3.0272728   -1.0595228   0.45876297   -3.0272728      1.96775      1024000 
  988000    1.3118064    -3.026612    -3.026612   -1.0589064   0.45596097    -3.026612    1.9677056      1024000 
  989000    1.3121668   -3.0268726   -3.0268726   -1.0586265   0.45471771   -3.0268726    1.9682462      1024000 
  990000    1.3147339   -3.0285064   -3.0285064   -1.0564096   0.45331819   -3.0285064    1.9720968      1024000 
  991000    1.3146394   -3.0271151   -3.0271151     -1.05516   0.45343942   -3.0271151    1.9719551      1024000 
  992000    1.3133884   -3.0258106   -3.0258106   -1.0557319   0.45827046   -3.0258106    1.9700786      1024000 
  993000    1.3141171   -3.0250316   -3.0250316   -1.0538599   0.46031839   -3.0250316    1.9711717      1024000 
  994000    1.3145757   -3.0257304   -3.0257304   -1.0538708   0.45565201   -3.0257304    1.9718596      1024000 
  995000    1.3133702   -3.0237865   -3.0237865   -1.0537352   0.45527408   -3.0237865    1.9700513      1024000 
  996000    1.3141428   -3.0241983   -3.0241983   -1.0529882   0.45826203   -3.0241983    1.9712102      1024000 
  997000    1.3155096   -3.0251122   -3.0251122   -1.0518518   0.45415067   -3.0251122    1.9732604      1024000 
  998000    1.3152974   -3.0238877   -3.0238877   -1.0509456   0.46337293   -3.0238877    1.9729421      1024000 
  999000    1.3158966   -3.0249795   -3.0249795   -1.0511386   0.45983315   -3.0249795    1.9738409      1024000 
 1000000    1.3157439   -3.0238813   -3.0238813   -1.0502694   0.45811557   -3.0238813    1.9736119      1024000 
Loop time of 12890.1 on 32 procs for 1000000 steps with 492800 atoms

Performance: 16757.095 tau/day, 77.579 timesteps/s
98.7% CPU use with 32 MPI tasks x 1 OpenMP threads

MPI task timing breakdown:
Section |  min time  |  avg time  |  max time  |%varavg|  %CPU | %total
-----------------------------------------------------------------------
Pair    | 2937.2     | 6291.8     | 7895.5     |1744.6 |  98.9 | 48.81
Bond    | 0.58484    | 1.1453     | 2.5055     |  68.0 | 100.0 |  0.01
Neigh   | 1322.4     | 2089.2     | 2453.1     | 658.7 |  99.9 | 16.21
Comm    | 1557.5     | 3622.2     | 7189.8     |2537.0 |  97.3 | 28.10
Output  | 137.19     | 137.41     | 137.44     |   0.3 |  96.9 |  1.07
Modify  | 203.24     | 405.1      | 767.71     | 926.6 |  98.7 |  3.14
Other   |            | 343.3      |            |       |       |  2.66

Nlocal:        15400.0 ave       15931 max       15207 min
Histogram: 3 12 5 7 2 2 0 0 0 1
Nghost:        10527.0 ave       12532 max        6765 min
Histogram: 4 0 0 4 4 0 0 4 5 11
Neighs:       405870.0 ave      498948 max      211331 min
Histogram: 4 0 0 4 0 0 4 4 8 8

Total # of neighbors = 12987838
Ave neighs/atom = 26.355191
Ave special neighs/atom = 0.0000000
Neighbor list builds = 84658
Dangerous builds = 3723
Total wall time: 3:34:51
