## lammps data file for lj particle
1 atoms
1 atom types
0 2 xlo xhi
0 2 ylo yhi
0 2 zlo zhi

Atoms

1 0 1 0 1 1 1
