LAMMPS (24 Dec 2020)
OMP_NUM_THREADS environment is not set. Defaulting to 1 thread. (src/comm.cpp:94)
  using 1 OpenMP thread(s) per MPI task
#Read the equilibrated lj fluid and add nanocubes

units           lj
atom_style      full
atom_modify     map array first cubes
dimension       3
boundary        p p f
pair_style      lj/cut/opt 2.5

variable        sigma           equal 1.0
variable        epsilon         equal 1.0
read_restart	restart.dat.10000000
Reading restart file ...
  restart file = 24 Dec 2020, LAMMPS = 24 Dec 2020
WARNING: Restart file used different # of processors: 288 vs. 768 (src/read_restart.cpp:697)
  restoring atom style full from restart
  orthogonal box = (0.0000000 0.0000000 0.0000000) to (120.00000 120.00000 240.00000)
  6 by 8 by 16 MPI processor grid
  restoring pair style lj/cut/opt from restart
  1553347 atoms
Finding 1-2 1-3 1-4 neighbors ...
  special bond factors lj:    0        0        0       
  special bond factors coul:  0        0        0       
     0 = max # of 1-2 neighbors
     0 = max # of 1-3 neighbors
     0 = max # of 1-4 neighbors
     1 = max # of special neighbors
  special bonds CPU = 9.206 seconds
  read_restart CPU = 10.610 seconds

group		solvent type 1
1553347 atoms in group solvent

read_data	data2_450.cubes group cubes add append
Reading data file ...
  orthogonal box = (0.0000000 0.0000000 0.0000000) to (120.00000 120.00000 240.00000)
  6 by 8 by 16 MPI processor grid
  reading atoms ...
  560070 atoms
  reading velocities ...
  560070 velocities
Finding 1-2 1-3 1-4 neighbors ...
  special bond factors lj:    0        0        0       
  special bond factors coul:  0        0        0       
     0 = max # of 1-2 neighbors
     0 = max # of 1-3 neighbors
     0 = max # of 1-4 neighbors
     1 = max # of special neighbors
  special bonds CPU = 0.386 seconds
  read_data CPU = 3.863 seconds

group 		hull  type 2
218540 atoms in group hull
group 		dummy type 3
341530 atoms in group dummy

neighbor      0.4 bin
neigh_modify  exclude molecule/intra cubes


pair_modify   shift yes

pair_coeff    1 1 1.0 1.0 #solvent
pair_coeff    2 2 1.0 1.0 1.12 #np
pair_coeff    3 3 0.0 0.0 0.0 #dummy
pair_coeff    2 3 0.0 0.0 0.0 #np dummy
pair_coeff    1 2 ${sol} 1.0  #np solvent
pair_coeff    1 2 .70 1.0  
pair_coeff    1 3 0.0 0.0 2.5 #dummy solvent

# delete solvent where the cubes are
delete_atoms  overlap 1.0 solvent cubes
System init for delete_atoms ...
Unused restart file peratom fix info:
  fix style: STORE, fix ID: bin1_COMPUTE_STORE
Neighbor list info ...
  update every 1 steps, delay 10 steps, check yes
  max neighbors/atom: 2000, page size: 100000
  master list distance cutoff = 2.9
  ghost atom cutoff = 2.9
  binsize = 1.45, bins = 83 83 166
  2 neighbor lists, perpetual/occasional/extra = 1 1 0
  (1) command delete_atoms, occasional
      attributes: full, newton on
      pair build: full/bin
      stencil: full/bin/3d
      bin: standard
  (2) pair lj/cut/opt, perpetual
      attributes: half, newton on
      pair build: half/bin/newton
      stencil: half/bin/3d/newton
      bin: standard
WARNING: Delete_atoms cutoff > minimum neighbor cutoff (src/delete_atoms.cpp:307)
WARNING: Ignoring 'compress yes' for molecular system (src/delete_atoms.cpp:125)
Deleted 399208 atoms, new total = 1714209

pair_coeff    1 1 1.0 1.0 #solvent
pair_coeff    2 2 1.0 1.0 1.12 #np
pair_coeff    3 3 0.0 0.0 0.0 #dummy
pair_coeff    2 3 0.0 0.0 0.0 #np dummy
pair_coeff    1 2 ${sol} 1.0  #np solvent
pair_coeff    1 2 .70 1.0  
pair_coeff    1 3 0.0 0.0 0.0 #dummy solvent


comm_modify   mode multi cutoff/multi 1 2.5 cutoff/multi 2 2.5 cutoff/multi 3 6.96

reset_timestep 	0

balance 	1.05 shift z 10 1.05
Balancing ...
Neighbor list info ...
  update every 1 steps, delay 10 steps, check yes
  max neighbors/atom: 2000, page size: 100000
  master list distance cutoff = 2.9
  ghost atom cutoff = 6.96
  binsize = 1.45, bins = 83 83 166
  1 neighbor lists, perpetual/occasional/extra = 1 0 0
  (1) pair lj/cut/opt, perpetual
      attributes: half, newton on
      pair build: half/bin/newton
      stencil: half/bin/3d/newton
      bin: standard
 rebalancing time: 0.010 seconds
  iteration count = 4
  initial/final maximal load/proc = 3285.0000 3272.0000
  initial/final imbalance factor  = 1.4717459 1.4659216
  x cuts: 0.0000000 0.16666667 0.33333333 0.50000000 0.66666667 0.83333333 1.0000000
  y cuts: 0.0000000 0.12500000 0.25000000 0.37500000 0.50000000 0.62500000 0.75000000 0.87500000 1.0000000
  z cuts: 0.0000000 0.050781250 0.097656250 0.14453125 0.19140625 0.24218750 0.28906250 0.33593750 0.38281250 0.43359375 0.47265625 0.53515625 0.57421875 0.63671875 0.67187500 0.73437500 1.0000000

####################### WALLS ###########################

variable       epsilonWall equal 2*${epsilon}
variable       epsilonWall equal 2*1
variable       repulsive   equal   0.7147*${sigma}
variable       repulsive   equal   0.7147*1
variable       full	   equal   3*${sigma}
variable       full	   equal   3*1
region         lowWall block EDGE EDGE EDGE EDGE EDGE 2

fix            topWall all wall/lj93 zhi EDGE 	       ${epsilonWall} ${sigma} ${repulsive} units box
fix            topWall all wall/lj93 zhi EDGE 	       2 ${sigma} ${repulsive} units box
fix            topWall all wall/lj93 zhi EDGE 	       2 1 ${repulsive} units box
fix            topWall all wall/lj93 zhi EDGE 	       2 1 0.7147 units box
fix            lowSol solvent wall/lj93 zlo EDGE                ${epsilonWall} ${sigma} ${full} units box
fix            lowSol solvent wall/lj93 zlo EDGE                2 ${sigma} ${full} units box
fix            lowSol solvent wall/lj93 zlo EDGE                2 1 ${full} units box
fix            lowSol solvent wall/lj93 zlo EDGE                2 1 3 units box
fix 	       lowCub cubes wall/lj93 zlo EDGE                ${epsilonWall} ${sigma} ${repulsive} units box
fix 	       lowCub cubes wall/lj93 zlo EDGE                2 ${sigma} ${repulsive} units box
fix 	       lowCub cubes wall/lj93 zlo EDGE                2 1 ${repulsive} units box
fix 	       lowCub cubes wall/lj93 zlo EDGE                2 1 0.7147 units box


###################### COMPUTES ##########################

compute        bin1 solvent chunk/atom bin/1d z lower 1.0 units box
compute        bin3 solvent chunk/atom bin/3d x lower 5.0 y lower 5.0 z lower 5.0 units box

compute 	pe solvent 	   pe/atom
compute 	pe2 all 	   pe/atom

######################  FIXES ############################


fix             peclet solvent ave/chunk 10 10 100000 bin1 density/number norm                  none ave one file density.profile

fix              temp solvent ave/chunk 10 10 100000 bin1 temp norm                  none ave one file temp.profile

fix 		 dens solvent ave/chunk 10 10 500000 bin3 density/number norm 		 none ave one file dens3.profile

fix 		pe solvent ave/chunk 1 1 500000 bin3 c_pe norm none ave one file pe3.profile
fix             1 cubes rigid/nve/small molecule
  create bodies CPU = 0.049 seconds
  490 rigid bodies with 560070 atoms
  6.9554839 = max distance from body owner to body atom

fix             2 solvent nve# temp ${temp} ${temp} 10


## Thermostat
region          regthermo block EDGE EDGE EDGE EDGE 0 15
group           thermo dynamic solvent region regthermo every 1000
dynamic group thermo defined
fix             3 thermo langevin ${temp} ${temp} 10 156453
fix             3 thermo langevin 1.0 ${temp} 10 156453
fix             3 thermo langevin 1.0 1.0 10 156453


#### Load balancing

fix             bal all balance 1000 1.05 shift z 10 1.05

############### Diagnostics and computes ###################


compute        	com cubes          rigid/local   1 mol x y z
compute        	quat cubes         rigid/local   1 mol quatw quati quatj quatk

compute 	cc2 cubes 	   chunk/atom 	 molecule
compute 	msd cubes 	   msd/chunk 	 cc2

fix 		msd all ave/time  1 1 10000 c_msd[*] file dump.msd ave one mode vector

dump            1 all custom 500000 dump.lammpstrj id mol type x y z vx vy vz c_pe2
dump		sol  solvent custom 500000 dump.soltrj id x y z vx vy vz c_pe
dump		cubetrj cubes custom 500000 cubes.lammpstrj id mol type x y z vx vy vz
#dump            com cubes local 100000 dump.*.xyz c_com[*]
#dump	        xyz hull xyz 100000 cubes.xyz
#dump            quat cubes      local 100000 dump.*.quat c_quat[*]
dump		order cubes 	local 500000 dump.*.order c_com[*] c_quat[*]
#dump		mol cubes molfile 10000 mol.xyz xyz


dump            2 all image 500000 image.*.png type type zoom 1.5 size 1280 720
dump_modify     2 pad 8
dump		image cubes image 500000 image_cubes.*.png type type zoom 1.5 size 1280 720
dump_modify	image pad 8
dump            3 all movie 10000 movie.avi type type zoom 1.5 size 1280 720
dump		4 cubes movie 10000 movie_cubes.avi type type size 1280 720


thermo          1000
thermo_style    custom step temp epair evdwl etotal press pe ke atoms

restart         1000000 restart.dat
timestep        0.005
timer           full
New timer settings: style=full  mode=nosync  timeout=off

run 		10000000
Per MPI rank memory allocation (min/avg/max) = 15.66 | 21.45 | 23.39 Mbytes
Step Temp E_pair E_vdwl TotEng Press PotEng KinEng Atoms 
       0    1.0088699   -2.1437854   -2.1437854   -1.1240465  -0.12095203   -2.1437854    1.0197389  1714209 
    1000    1.0106437   -2.1461367   -2.1461367   -1.1246048  0.060671392   -2.1461367    1.0215319  1714209 
    2000    1.0105995   -2.1463504   -2.1463504   -1.1248631  0.058786662   -2.1463504    1.0214872  1714209 
    3000    1.0112681   -2.1469639   -2.1469639   -1.1248009   0.06085795   -2.1469639     1.022163  1714209 
    4000    1.0102645    -2.146387    -2.146387   -1.1252384  0.069372452    -2.146387    1.0211486  1714209 
    5000    1.0111848   -2.1473547   -2.1473547    -1.125276  0.057144728   -2.1473547    1.0220788  1714209 
    6000    1.0099527    -2.146241    -2.146241   -1.1254076  0.063644351    -2.146241    1.0208334  1714209 
    7000    1.0105906    -2.147356    -2.147356   -1.1258777  0.053423265    -2.147356    1.0214782  1714209 
    8000    1.0102112   -2.1475481   -2.1475481   -1.1264534  0.058171478   -2.1475481    1.0210947  1714209 
    9000    1.0101343   -2.1475861   -2.1475861   -1.1265692   0.05904162   -2.1475861    1.0210169  1714209 
   10000    1.0092752   -2.1471961   -2.1471961   -1.1270475  0.063542205   -2.1471961    1.0201486  1714209 
   11000    1.0102827   -2.1481805   -2.1481805   -1.1270135  0.058107808   -2.1481805    1.0211669  1714209 
   12000    1.0099605    -2.147827    -2.147827   -1.1269857  0.064420159    -2.147827    1.0208413  1714209 
   13000    1.0087019   -2.1468721   -2.1468721    -1.127303  0.059841453   -2.1468721    1.0195691  1714209 
   14000    1.0087562   -2.1469303   -2.1469303   -1.1273062  0.061556573   -2.1469303    1.0196241  1714209 
   15000    1.0088485   -2.1473302   -2.1473302   -1.1276129   0.05947461   -2.1473302    1.0197173  1714209 
   16000     1.008964   -2.1481055   -2.1481055   -1.1282715   0.05699892   -2.1481055     1.019834  1714209 
   17000    1.0093309   -2.1489341   -2.1489341   -1.1287292  0.057894695   -2.1489341    1.0202049  1714209 
   18000    1.0092791   -2.1492321   -2.1492321   -1.1290795  0.059025138   -2.1492321    1.0201526  1714209 
   19000     1.008845   -2.1486377   -2.1486377    -1.128924  0.056972346   -2.1486377    1.0197137  1714209 
   20000    1.0084436   -2.1485216   -2.1485216   -1.1292135  0.063741056   -2.1485216    1.0193081  1714209 
   21000    1.0094675   -2.1495723   -2.1495723   -1.1292293  0.058428226   -2.1495723     1.020343  1714209 
   22000    1.0100238   -2.1503604   -2.1503604   -1.1294551  0.059642721   -2.1503604    1.0209053  1714209 
   23000    1.0090527   -2.1494531   -2.1494531   -1.1295294  0.063989961   -2.1494531    1.0199237  1714209 
   24000    1.0102106   -2.1507256   -2.1507256   -1.1296315  0.062264625   -2.1507256    1.0210941  1714209 
   25000    1.0091417   -2.1500657   -2.1500657    -1.130052  0.062188119   -2.1500657    1.0200136  1714209 
   26000    1.0108427    -2.151276    -2.151276    -1.129543  0.062452968    -2.151276     1.021733  1714209 
   27000    1.0092337    -2.150377    -2.150377   -1.1302704  0.063086565    -2.150377    1.0201067  1714209 
   28000    1.0103757   -2.1520209   -2.1520209     -1.13076   0.06255021   -2.1520209     1.021261  1714209 
   29000    1.0113075    -2.152908    -2.152908   -1.1307052  0.062874627    -2.152908    1.0222028  1714209 
   30000    1.0111313   -2.1534257   -2.1534257    -1.131401  0.063400439   -2.1534257    1.0220247  1714209 
   31000    1.0107576   -2.1535661   -2.1535661   -1.1319191  0.067175078   -2.1535661     1.021647  1714209 
   32000    1.0116359   -2.1542018   -2.1542018   -1.1316671  0.067005806   -2.1542018    1.0225347  1714209 
   33000    1.0116869   -2.1543539   -2.1543539   -1.1317675  0.070392264   -2.1543539    1.0225863  1714209 
   34000    1.0119778   -2.1551329   -2.1551329   -1.1322526  0.068638689   -2.1551329    1.0228803  1714209 
   35000    1.0106803   -2.1542022   -2.1542022   -1.1326333  0.067016368   -2.1542022    1.0215689  1714209 
   36000    1.0113486   -2.1549327   -2.1549327   -1.1326884  0.063268399   -2.1549327    1.0222443  1714209 
   37000    1.0116896   -2.1555391   -2.1555391   -1.1329501  0.066089973   -2.1555391     1.022589  1714209 
   38000    1.0113296   -2.1555982   -2.1555982    -1.133373  0.066676631   -2.1555982    1.0222251  1714209 
   39000    1.0108576   -2.1554202   -2.1554202   -1.1336722  0.063183627   -2.1554202     1.021748  1714209 
   40000    1.0117797   -2.1561845   -2.1561845   -1.1335044  0.062859482   -2.1561845    1.0226801  1714209 
   41000    1.0117814   -2.1566894   -2.1566894   -1.1340076  0.064258934   -2.1566894    1.0226818  1714209 
   42000     1.011764   -2.1569677   -2.1569677   -1.1343035  0.069685433   -2.1569677    1.0226642  1714209 
   43000     1.010955   -2.1565469   -2.1565469   -1.1347004  0.066670206   -2.1565469    1.0218465  1714209 
   44000    1.0118379   -2.1571139   -2.1571139   -1.1343749  0.065983713   -2.1571139    1.0227389  1714209 
   45000    1.0115542   -2.1570996   -2.1570996   -1.1346475  0.064745147   -2.1570996    1.0224521  1714209 
   46000    1.0114038   -2.1568851   -2.1568851    -1.134585  0.062498978   -2.1568851    1.0223001  1714209 
   47000    1.0109019   -2.1566223   -2.1566223   -1.1348295  0.068773359   -2.1566223    1.0217928  1714209 
   48000    1.0109549   -2.1572292   -2.1572292   -1.1353828  0.067874019   -2.1572292    1.0218464  1714209 
   49000    1.0114682   -2.1577936   -2.1577936   -1.1354283  0.065153624   -2.1577936    1.0223653  1714209 
   50000    1.0106972   -2.1567106   -2.1567106   -1.1351247  0.065658764   -2.1567106    1.0215859  1714209 
   51000    1.0105327   -2.1564451   -2.1564451   -1.1350255  0.066989601   -2.1564451    1.0214196  1714209 
   52000     1.010745   -2.1567288   -2.1567288   -1.1350945  0.063520598   -2.1567288    1.0216343  1714209 
   53000    1.0103224   -2.1564897   -2.1564897   -1.1352826  0.060848577   -2.1564897    1.0212071  1714209 
   54000     1.010119    -2.156564    -2.156564   -1.1355625  0.064914165    -2.156564    1.0210015  1714209 
   55000    1.0110961   -2.1570503   -2.1570503   -1.1350612  0.066852406   -2.1570503    1.0219891  1714209 
   56000    1.0102642    -2.156427    -2.156427   -1.1352787  0.067398583    -2.156427    1.0211483  1714209 
   57000    1.0109958   -2.1575646   -2.1575646   -1.1356769  0.066161757   -2.1575646    1.0218877  1714209 
   58000    1.0103674   -2.1569889   -2.1569889   -1.1357363  0.064207045   -2.1569889    1.0212526  1714209 
   59000    1.0099641    -2.156445    -2.156445      -1.1356  0.060112589    -2.156445    1.0208449  1714209 
   60000    1.0088405   -2.1554204   -2.1554204   -1.1357112  0.068462547   -2.1554204    1.0197092  1714209 
   61000    1.0094675   -2.1564385   -2.1564385   -1.1360955  0.065507759   -2.1564385     1.020343  1714209 
   62000    1.0092818    -2.155783    -2.155783   -1.1356277    0.0638994    -2.155783    1.0201552  1714209 
   63000    1.0099945   -2.1558597   -2.1558597   -1.1349841  0.060189083   -2.1558597    1.0208756  1714209 
   64000    1.0109482   -2.1565545   -2.1565545   -1.1347149  0.064875903   -2.1565545    1.0218396  1714209 
   65000     1.009851   -2.1559499   -2.1559499   -1.1352193  0.062413668   -2.1559499    1.0207306  1714209 
   66000    1.0095671   -2.1551368   -2.1551368   -1.1346932  0.064763974   -2.1551368    1.0204436  1714209 
   67000    1.0095083   -2.1549934   -2.1549934   -1.1346091   0.06142594   -2.1549934    1.0203843  1714209 
   68000     1.010329   -2.1556394   -2.1556394   -1.1344257  0.064392374   -2.1556394    1.0212138  1714209 
   69000    1.0091501   -2.1545294   -2.1545294   -1.1345073  0.062824819   -2.1545294    1.0200221  1714209 
   70000    1.0081544   -2.1536228   -2.1536228    -1.134607  0.062251681   -2.1536228    1.0190158  1714209 
   71000    1.0091604   -2.1547984   -2.1547984   -1.1347658  0.061414626   -2.1547984    1.0200326  1714209 
   72000    1.0088168   -2.1539645   -2.1539645   -1.1342792  0.065568206   -2.1539645    1.0196852  1714209 
   73000    1.0090082   -2.1539057   -2.1539057    -1.134027  0.063547768   -2.1539057    1.0198787  1714209 
   74000    1.0105151   -2.1555087   -2.1555087   -1.1341069  0.060910623   -2.1555087    1.0214018  1714209 
   75000    1.0105452    -2.155148    -2.155148   -1.1337156  0.060341946    -2.155148    1.0214323  1714209 
   76000     1.009487    -2.154338    -2.154338   -1.1339753  0.064923173    -2.154338    1.0203627  1714209 
   77000    1.0112291   -2.1556167   -2.1556167   -1.1334932     0.060998   -2.1556167    1.0221235  1714209 
   78000     1.010118   -2.1550947   -2.1550947   -1.1340942  0.063399386   -2.1550947    1.0210005  1714209 
   79000    1.0098318   -2.1552669   -2.1552669   -1.1345558   0.06192267   -2.1552669    1.0207112  1714209 
   80000    1.0093528   -2.1546392   -2.1546392   -1.1344122  0.066519285   -2.1546392     1.020227  1714209 
   81000    1.0094465   -2.1552531   -2.1552531   -1.1349314  0.063142699   -2.1552531    1.0203217  1714209 
   82000    1.0097189   -2.1555557   -2.1555557   -1.1349586  0.062804611   -2.1555557    1.0205971  1714209 
   83000    1.0087576   -2.1545187   -2.1545187   -1.1348933   0.06256805   -2.1545187    1.0196254  1714209 
   84000    1.0091412   -2.1548127   -2.1548127   -1.1347995  0.063490924   -2.1548127    1.0200132  1714209 
   85000    1.0093666   -2.1550549   -2.1550549   -1.1348139  0.059177166   -2.1550549     1.020241  1714209 
   86000    1.0084479   -2.1539547   -2.1539547   -1.1346422  0.061976297   -2.1539547    1.0193124  1714209 
   87000    1.0089613   -2.1549524   -2.1549524    -1.135121  0.060234966   -2.1549524    1.0198314  1714209 
   88000    1.0101611   -2.1557865   -2.1557865   -1.1347424   0.06094206   -2.1557865    1.0210441  1714209 
   89000    1.0092424   -2.1547697   -2.1547697   -1.1346542  0.061529947   -2.1547697    1.0201155  1714209 
   90000    1.0099117   -2.1553495   -2.1553495   -1.1345576  0.058477994   -2.1553495     1.020792  1714209 
   91000    1.0087133   -2.1543116   -2.1543116   -1.1347309  0.065565776   -2.1543116    1.0195807  1714209 
   92000    1.0104042    -2.155953    -2.155953   -1.1346632  0.060359711    -2.155953    1.0212898  1714209 
   93000    1.0091867   -2.1546089   -2.1546089   -1.1345498  0.063030137   -2.1546089    1.0200591  1714209 
   94000    1.0094395   -2.1546399   -2.1546399   -1.1343252   0.06227717   -2.1546399    1.0203147  1714209 
   95000    1.0098228   -2.1549062   -2.1549062   -1.1342041  0.059923155   -2.1549062    1.0207021  1714209 
   96000    1.0097194   -2.1549794   -2.1549794   -1.1343818  0.062867159   -2.1549794    1.0205976  1714209 
   97000    1.0094997   -2.1546137   -2.1546137   -1.1342381  0.064050698   -2.1546137    1.0203755  1714209 
   98000    1.0102674   -2.1554782   -2.1554782   -1.1343267  0.061054312   -2.1554782    1.0211515  1714209 
   99000    1.0095056   -2.1549142   -2.1549142   -1.1345327  0.061933283   -2.1549142    1.0203815  1714209 
  100000    1.0102361   -2.1554005   -2.1554005   -1.1342806  0.067188348   -2.1554005    1.0211199  1714209 
  101000    1.0103112   -2.1554671   -2.1554671   -1.1342714   0.06541439   -2.1554671    1.0211957  1714209 
  102000    1.0105231   -2.1557138   -2.1557138   -1.1343039   0.06444271   -2.1557138    1.0214099  1714209 
  103000    1.0099009   -2.1553559   -2.1553559   -1.1345749   0.06184569   -2.1553559     1.020781  1714209 
  104000    1.0098887   -2.1553662   -2.1553662   -1.1345975  0.062040701   -2.1553662    1.0207688  1714209 
  105000    1.0108349   -2.1561742   -2.1561742   -1.1344491  0.066070845   -2.1561742    1.0217251  1714209 
  106000    1.0105829   -2.1558985   -2.1558985   -1.1344281  0.063006966   -2.1558985    1.0214704  1714209 
  107000    1.0106498    -2.156445    -2.156445    -1.134907  0.068358143    -2.156445     1.021538  1714209 
  108000    1.0109845   -2.1568742   -2.1568742    -1.134998  0.065104998   -2.1568742    1.0218763  1714209 
  109000    1.0105998   -2.1566683   -2.1566683   -1.1351808  0.063861916   -2.1566683    1.0214875  1714209 
  110000    1.0109055   -2.1572378   -2.1572378   -1.1354413  0.062294283   -2.1572378    1.0217965  1714209 
  111000    1.0115578   -2.1577591   -2.1577591   -1.1353033  0.066180827   -2.1577591    1.0224558  1714209 
  112000    1.0107594   -2.1571163   -2.1571163   -1.1354674  0.062249832   -2.1571163    1.0216488  1714209 
  113000    1.0116429   -2.1585608   -2.1585608    -1.136019  0.063788748   -2.1585608    1.0225418  1714209 
  114000    1.0106752   -2.1578632   -2.1578632   -1.1362995  0.061642711   -2.1578632    1.0215637  1714209 
  115000    1.0103976   -2.1576487   -2.1576487   -1.1363657  0.063138203   -2.1576487    1.0212831  1714209 
  116000    1.0106143   -2.1580118   -2.1580118   -1.1365096  0.065828639   -2.1580118    1.0215022  1714209 
  117000     1.010128   -2.1576914   -2.1576914   -1.1366808  0.067984022   -2.1576914    1.0210106  1714209 
  118000    1.0094219   -2.1570533   -2.1570533   -1.1367565   0.06793549   -2.1570533    1.0202969  1714209 
  119000     1.009582   -2.1574489   -2.1574489   -1.1369902  0.063689122   -2.1574489    1.0204587  1714209 
  120000    1.0101711   -2.1579113   -2.1579113   -1.1368572  0.064464241   -2.1579113    1.0210541  1714209 
  121000    1.0093617   -2.1571024   -2.1571024   -1.1368663   0.06685255   -2.1571024     1.020236  1714209 
  122000    1.0097136   -2.1577549   -2.1577549   -1.1371632  0.061251062   -2.1577549    1.0205917  1714209 
  123000    1.0091697    -2.156954    -2.156954    -1.136912  0.059682625    -2.156954     1.020042  1714209 
  124000    1.0098944   -2.1573861   -2.1573861   -1.1366116  0.066951095   -2.1573861    1.0207745  1714209 
  125000    1.0104784   -2.1579068   -2.1579068   -1.1365421  0.063853871   -2.1579068    1.0213647  1714209 
  126000    1.0094551   -2.1570983   -2.1570983   -1.1367679  0.063528782   -2.1570983    1.0203305  1714209 
  127000    1.0114362   -2.1585851   -2.1585851   -1.1362522  0.063126231   -2.1585851    1.0223329  1714209 
  128000     1.010561   -2.1583319   -2.1583319   -1.1368836  0.070415066   -2.1583319    1.0214483  1714209 
  129000    1.0107603   -2.1585891   -2.1585891   -1.1369394  0.065157971   -2.1585891    1.0216497  1714209 
  130000    1.0109016   -2.1584562   -2.1584562   -1.1366637  0.066080147   -2.1584562    1.0217926  1714209 
  131000    1.0111691   -2.1587739   -2.1587739    -1.136711  0.066991428   -2.1587739    1.0220629  1714209 
  132000    1.0108672   -2.1582838   -2.1582838    -1.136526  0.061680484   -2.1582838    1.0217578  1714209 
  133000    1.0114777   -2.1591152   -2.1591152   -1.1367404  0.065189834   -2.1591152    1.0223748  1714209 
  134000     1.011017   -2.1586676   -2.1586676   -1.1367585  0.062779734   -2.1586676    1.0219091  1714209 
  135000    1.0105506   -2.1580945   -2.1580945   -1.1366568  0.065234187   -2.1580945    1.0214377  1714209 
  136000    1.0100994   -2.1577842   -2.1577842   -1.1368026  0.067902829   -2.1577842    1.0209817  1714209 
  137000     1.010459   -2.1582159   -2.1582159   -1.1368708   0.06244275   -2.1582159    1.0213451  1714209 
  138000    1.0101319   -2.1580934   -2.1580934   -1.1370788  0.062571362   -2.1580934    1.0210146  1714209 
  139000     1.009967   -2.1578176   -2.1578176   -1.1369698  0.065692457   -2.1578176    1.0208479  1714209 
  140000    1.0110725   -2.1591567   -2.1591567   -1.1371915  0.059527342   -2.1591567    1.0219653  1714209 
  141000     1.010417   -2.1585617   -2.1585617    -1.137259  0.066368427   -2.1585617    1.0213027  1714209 
  142000    1.0090287    -2.156956    -2.156956   -1.1370566  0.065669975    -2.156956    1.0198995  1714209 
  143000    1.0094364   -2.1574273   -2.1574273   -1.1371157  0.068705928   -2.1574273    1.0203116  1714209 
  144000    1.0092531   -2.1572704   -2.1572704   -1.1371441  0.063347987   -2.1572704    1.0201263  1714209 
  145000    1.0091575   -2.1572771   -2.1572771   -1.1372475  0.062821507   -2.1572771    1.0200297  1714209 
  146000    1.0094809    -2.157441    -2.157441   -1.1370844  0.062742805    -2.157441    1.0203566  1714209 
  147000    1.0096922     -2.15785     -2.15785   -1.1372799  0.060928329     -2.15785    1.0205701  1714209 
  148000    1.0088756   -2.1569324   -2.1569324   -1.1371877  0.059922266   -2.1569324    1.0197447  1714209 
  149000    1.0089399   -2.1574414   -2.1574414   -1.1376317  0.064015336   -2.1574414    1.0198097  1714209 
  150000    1.0095715   -2.1578838   -2.1578838   -1.1374357  0.062466103   -2.1578838    1.0204481  1714209 
  151000    1.0097824   -2.1579077   -2.1579077   -1.1372465  0.060856454   -2.1579077    1.0206612  1714209 
  152000    1.0098157   -2.1580945   -2.1580945   -1.1373995  0.063928856   -2.1580945     1.020695  1714209 
  153000    1.0094045     -2.15787     -2.15787   -1.1375907  0.061758073     -2.15787    1.0202793  1714209 
  154000     1.010157   -2.1585336   -2.1585336   -1.1374937  0.062555796   -2.1585336    1.0210399  1714209 
  155000    1.0091953   -2.1575294   -2.1575294   -1.1374615  0.063810039   -2.1575294    1.0200678  1714209 
  156000    1.0098357    -2.158993    -2.158993   -1.1382779  0.063723391    -2.158993    1.0207151  1714209 
  157000    1.0098585   -2.1588476   -2.1588476   -1.1381094  0.062566598   -2.1588476    1.0207382  1714209 
  158000    1.0088049     -2.15797     -2.15797   -1.1382967  0.065876683     -2.15797    1.0196732  1714209 
  159000    1.0092827   -2.1581607   -2.1581607   -1.1380045  0.060620236   -2.1581607    1.0201562  1714209 
  160000    1.0096277   -2.1585821   -2.1585821   -1.1380772    0.0628592   -2.1585821    1.0205049  1714209 
  161000    1.0093665   -2.1588789   -2.1588789    -1.138638  0.060207361   -2.1588789    1.0202409  1714209 
  162000    1.0092624   -2.1588468   -2.1588468   -1.1387111  0.062256582   -2.1588468    1.0201357  1714209 
  163000    1.0084497   -2.1581717   -2.1581717   -1.1388574  0.062614725   -2.1581717    1.0193142  1714209 
  164000    1.0095054   -2.1589475   -2.1589475   -1.1385663  0.062834753   -2.1589475    1.0203813  1714209 
  165000     1.009294   -2.1590834   -2.1590834   -1.1389158  0.061324453   -2.1590834    1.0201676  1714209 
  166000     1.009214   -2.1586639   -2.1586639   -1.1385771  0.065023638   -2.1586639    1.0200868  1714209 
  167000    1.0100575   -2.1595306   -2.1595306   -1.1385912  0.057851934   -2.1595306    1.0209394  1714209 
  168000    1.0090603   -2.1585465   -2.1585465   -1.1386151  0.058117468   -2.1585465    1.0199314  1714209 
  169000    1.0081995   -2.1578231   -2.1578231   -1.1387618  0.065888745   -2.1578231    1.0190613  1714209 
  170000    1.0089596   -2.1584432   -2.1584432   -1.1386136  0.066478334   -2.1584432    1.0198296  1714209 
  171000    1.0084586   -2.1578326   -2.1578326   -1.1385094  0.063175481   -2.1578326    1.0193232  1714209 
  172000    1.0091322   -2.1585492   -2.1585492   -1.1385452  0.065257967   -2.1585492     1.020004  1714209 
  173000    1.0093288   -2.1590776   -2.1590776   -1.1388748  0.056543546   -2.1590776    1.0202028  1714209 
  174000    1.0099734   -2.1596329   -2.1596329   -1.1387786  0.063151057   -2.1596329    1.0208543  1714209 
  175000    1.0089428   -2.1585714   -2.1585714   -1.1387588  0.068649307   -2.1585714    1.0198126  1714209 
  176000    1.0099686    -2.159681    -2.159681   -1.1388315  0.062446777    -2.159681    1.0208495  1714209 
  177000     1.009697   -2.1591335   -2.1591335   -1.1385586  0.063787005   -2.1591335    1.0205749  1714209 
  178000    1.0098137   -2.1596127   -2.1596127   -1.1389197  0.064082356   -2.1596127    1.0206929  1714209 
  179000    1.0094833   -2.1591852   -2.1591852   -1.1388263  0.065404336   -2.1591852    1.0203589  1714209 
  180000    1.0099058   -2.1595677   -2.1595677   -1.1387817  0.068954137   -2.1595677     1.020786  1714209 
  181000    1.0102985    -2.159832    -2.159832   -1.1386491  0.061178765    -2.159832    1.0211829  1714209 
  182000    1.0108129   -2.1603949   -2.1603949    -1.138692  0.059566499   -2.1603949    1.0217029  1714209 
  183000      1.01054   -2.1603173   -2.1603173   -1.1388903  0.062143864   -2.1603173     1.021427  1714209 
  184000    1.0097695   -2.1595776   -2.1595776   -1.1389294  0.063235963   -2.1595776    1.0206482  1714209 
  185000    1.0089352    -2.158849    -2.158849    -1.139044  0.066709941    -2.158849     1.019805  1714209 
  186000    1.0096481   -2.1601094   -2.1601094   -1.1395839  0.065356733   -2.1601094    1.0205255  1714209 
  187000    1.0101112   -2.1602139   -2.1602139   -1.1392202  0.061827936   -2.1602139    1.0209937  1714209 
  188000    1.0106307   -2.1606458   -2.1606458   -1.1391271  0.066664622   -2.1606458    1.0215187  1714209 
  189000    1.0094359   -2.1597688   -2.1597688   -1.1394578  0.068725723   -2.1597688     1.020311  1714209 
  190000    1.0098592   -2.1601873   -2.1601873   -1.1394483  0.066652656   -2.1601873    1.0207389  1714209 
  191000    1.0104213   -2.1609175   -2.1609175   -1.1396104   0.06450801   -2.1609175    1.0213071  1714209 
  192000    1.0110075   -2.1614331   -2.1614331   -1.1395335  0.060375836   -2.1614331    1.0218996  1714209 
  193000      1.00888   -2.1594946   -2.1594946   -1.1397454  0.067670431   -2.1594946    1.0197491  1714209 
  194000    1.0095978   -2.1604649   -2.1604649   -1.1399902  0.060312622   -2.1604649    1.0204746  1714209 
  195000    1.0107121   -2.1616644   -2.1616644   -1.1400635  0.065086601   -2.1616644    1.0216009  1714209 
  196000    1.0108507   -2.1617442   -2.1617442   -1.1400031  0.063825608   -2.1617442    1.0217411  1714209 
  197000    1.0105897     -2.16147     -2.16147   -1.1399927  0.063967642     -2.16147    1.0214773  1714209 
  198000    1.0108449   -2.1616457   -2.1616457   -1.1399105  0.061469298   -2.1616457    1.0217352  1714209 
  199000    1.0100812   -2.1606939   -2.1606939   -1.1397306  0.063716137   -2.1606939    1.0209633  1714209 
  200000    1.0100891   -2.1608582   -2.1608582    -1.139887   0.06345104   -2.1608582    1.0209712  1714209 
  201000     1.010778   -2.1613872   -2.1613872   -1.1397195  0.061280146   -2.1613872    1.0216676  1714209 
  202000    1.0098248   -2.1601382   -2.1601382   -1.1394341  0.060256839   -2.1601382    1.0207041  1714209 
  203000    1.0099723   -2.1608104   -2.1608104   -1.1399572  0.066182817   -2.1608104    1.0208532  1714209 
  204000    1.0097717   -2.1605856   -2.1605856   -1.1399351  0.064398713   -2.1605856    1.0206505  1714209 
  205000    1.0092062    -2.159966    -2.159966   -1.1398871  0.064708115    -2.159966    1.0200789  1714209 
  206000    1.0102404   -2.1612158   -2.1612158   -1.1400916  0.064819626   -2.1612158    1.0211242  1714209 
  207000    1.0096958   -2.1602901   -2.1602901   -1.1397164  0.060302948   -2.1602901    1.0205737  1714209 
  208000    1.0099757   -2.1606482   -2.1606482   -1.1397915  0.065146404   -2.1606482    1.0208567  1714209 
  209000    1.0093413   -2.1598174   -2.1598174    -1.139602  0.067749662   -2.1598174    1.0202154  1714209 
  210000    1.0100134   -2.1605025   -2.1605025   -1.1396077   0.06670219   -2.1605025    1.0208948  1714209 
  211000    1.0102038   -2.1607242   -2.1607242    -1.139637  0.060917412   -2.1607242    1.0210872  1714209 
  212000    1.0097663   -2.1600792   -2.1600792   -1.1394342   0.06062091   -2.1600792     1.020645  1714209 
  213000    1.0094059   -2.1600845   -2.1600845   -1.1398038  0.062194433   -2.1600845    1.0202807  1714209 
  214000    1.0101598    -2.160523    -2.160523   -1.1394802  0.063586604    -2.160523    1.0210428  1714209 
  215000    1.0093392   -2.1598748   -2.1598748   -1.1396615  0.062471746   -2.1598748    1.0202133  1714209 
  216000    1.0094042   -2.1598529   -2.1598529   -1.1395739  0.066895675   -2.1598529     1.020279  1714209 
  217000    1.0092862   -2.1597629   -2.1597629   -1.1396032  0.063491579   -2.1597629    1.0201597  1714209 
  218000    1.0095987   -2.1598386   -2.1598386    -1.139363  0.060380222   -2.1598386    1.0204756  1714209 
  219000    1.0095078   -2.1591835   -2.1591835   -1.1387997  0.063522738   -2.1591835    1.0203837  1714209 
  220000    1.0090639   -2.1585408   -2.1585408   -1.1386057  0.063368604   -2.1585408    1.0199351  1714209 
  221000    1.0092923   -2.1589051   -2.1589051   -1.1387392  0.065372741   -2.1589051    1.0201659  1714209 
  222000    1.0094336   -2.1593588   -2.1593588   -1.1390501  0.060406267   -2.1593588    1.0203087  1714209 
  223000    1.0095816   -2.1597967   -2.1597967   -1.1393383  0.060338459   -2.1597967    1.0204583  1714209 
  224000    1.0090301   -2.1590916   -2.1590916   -1.1391907  0.066835653   -2.1590916    1.0199009  1714209 
  225000    1.0096023   -2.1598225   -2.1598225   -1.1393432  0.059906925   -2.1598225    1.0204793  1714209 
  226000    1.0088895   -2.1590685   -2.1590685   -1.1393097  0.066013357   -2.1590685    1.0197588  1714209 
  227000    1.0097974   -2.1599077   -2.1599077   -1.1392313  0.061797098   -2.1599077    1.0206764  1714209 
  228000    1.0097454    -2.160489    -2.160489   -1.1398651  0.067505944    -2.160489    1.0206239  1714209 
  229000    1.0102036   -2.1603312   -2.1603312   -1.1392442  0.064308521   -2.1603312     1.021087  1714209 
  230000    1.0099839   -2.1598808   -2.1598808   -1.1390158  0.060937719   -2.1598808     1.020865  1714209 
  231000    1.0097211    -2.159687    -2.159687   -1.1390877  0.060690924    -2.159687    1.0205994  1714209 
  232000    1.0085736   -2.1590102   -2.1590102   -1.1395708  0.068004026   -2.1590102    1.0194395  1714209 
  233000     1.008466   -2.1590721   -2.1590721   -1.1397414  0.065582206   -2.1590721    1.0193307  1714209 
  234000    1.0098889   -2.1598308   -2.1598308   -1.1390619  0.064330614   -2.1598308    1.0207689  1714209 
  235000    1.0100032   -2.1597767   -2.1597767   -1.1388923  0.070608861   -2.1597767    1.0208844  1714209 
  236000    1.0100718   -2.1604357   -2.1604357   -1.1394819   0.06276659   -2.1604357    1.0209538  1714209 
  237000    1.0082227   -2.1589422   -2.1589422   -1.1398574  0.064693139   -2.1589422    1.0190848  1714209 
  238000    1.0082466   -2.1589755   -2.1589755   -1.1398666  0.061496799   -2.1589755    1.0191089  1714209 
  239000    1.0088903   -2.1596771   -2.1596771   -1.1399175  0.059847334   -2.1596771    1.0197596  1714209 
  240000    1.0094389   -2.1602119   -2.1602119   -1.1398978  0.057064592   -2.1602119    1.0203141  1714209 
  241000    1.0090506   -2.1598864   -2.1598864   -1.1399647  0.062301696   -2.1598864    1.0199216  1714209 
  242000    1.0091418   -2.1596307   -2.1596307   -1.1396169  0.061506425   -2.1596307    1.0200137  1714209 
  243000    1.0094551   -2.1600632   -2.1600632   -1.1397327  0.066481234   -2.1600632    1.0203305  1714209 
  244000    1.0098467   -2.1606948   -2.1606948   -1.1399686  0.065166854   -2.1606948    1.0207262  1714209 
  245000    1.0093385   -2.1603572   -2.1603572   -1.1401446  0.063283314   -2.1603572    1.0202126  1714209 
  246000    1.0089038   -2.1599736   -2.1599736   -1.1402004  0.062223086   -2.1599736    1.0197732  1714209 
  247000    1.0087098   -2.1593867   -2.1593867   -1.1398096   0.06311774   -2.1593867    1.0195771  1714209 
  248000    1.0096959   -2.1604736   -2.1604736   -1.1398998   0.06393386   -2.1604736    1.0205738  1714209 
  249000    1.0096234   -2.1606032   -2.1606032   -1.1401026  0.066913286   -2.1606032    1.0205006  1714209 
  250000    1.0092471   -2.1599485   -2.1599485   -1.1398283  0.069334141   -2.1599485    1.0201202  1714209 
  251000    1.0101458   -2.1608468   -2.1608468   -1.1398182  0.065812321   -2.1608468    1.0210286  1714209 
  252000    1.0105894   -2.1610444   -2.1610444   -1.1395675  0.066783912   -2.1610444    1.0214769  1714209 
  253000    1.0100137   -2.1606832   -2.1606832   -1.1397881   0.06748513   -2.1606832     1.020895  1714209 
  254000    1.0094682   -2.1604883   -2.1604883   -1.1401446  0.068276034   -2.1604883    1.0203437  1714209 
  255000    1.0087108   -2.1601609   -2.1601609   -1.1405828  0.062176439   -2.1601609    1.0195781  1714209 
  256000    1.0093557   -2.1609061   -2.1609061   -1.1406762  0.066348012   -2.1609061      1.02023  1714209 
  257000    1.0101055   -2.1616321   -2.1616321   -1.1406442  0.064989092   -2.1616321    1.0209878  1714209 
  258000    1.0097427   -2.1611207   -2.1611207   -1.1404996  0.065074402   -2.1611207    1.0206212  1714209 
  259000    1.0102193   -2.1615249   -2.1615249    -1.140422  0.063447848   -2.1615249    1.0211028  1714209 
  260000    1.0105333   -2.1619385   -2.1619385   -1.1405182  0.058626757   -2.1619385    1.0214203  1714209 
  261000    1.0098359   -2.1612446   -2.1612446   -1.1405292  0.063953109   -2.1612446    1.0207154  1714209 
  262000    1.0096082   -2.1609335   -2.1609335   -1.1404483  0.065663033   -2.1609335    1.0204852  1714209 
  263000    1.0089811   -2.1608682   -2.1608682   -1.1410169  0.062844317   -2.1608682    1.0198514  1714209 
  264000    1.0086317   -2.1606464   -2.1606464   -1.1411483  0.066702165   -2.1606464    1.0194982  1714209 
  265000    1.0095781   -2.1615145   -2.1615145   -1.1410598  0.065674501   -2.1615145    1.0204547  1714209 
  266000    1.0094893   -2.1618018   -2.1618018   -1.1414368  0.059573782   -2.1618018     1.020365  1714209 
  267000    1.0101507    -2.162339    -2.162339   -1.1413054   0.05997704    -2.162339    1.0210336  1714209 
  268000    1.0091072   -2.1613505   -2.1613505   -1.1413717  0.064681216   -2.1613505    1.0199788  1714209 
  269000    1.0104393     -2.16243     -2.16243   -1.1411048  0.063822636     -2.16243    1.0213253  1714209 
  270000    1.0093984    -2.161627    -2.161627   -1.1413539  0.065548249    -2.161627    1.0202731  1714209 
  271000    1.0091764   -2.1617977   -2.1617977   -1.1417489  0.066019984   -2.1617977    1.0200488  1714209 
  272000    1.0095327   -2.1617116   -2.1617116   -1.1413027  0.061368382   -2.1617116    1.0204089  1714209 
  273000    1.0097643   -2.1616334   -2.1616334   -1.1409904  0.065540145   -2.1616334    1.0206429  1714209 
  274000    1.0090152   -2.1611046   -2.1611046   -1.1412188  0.067729725   -2.1611046    1.0198858  1714209 
  275000    1.0097377   -2.1617547   -2.1617547   -1.1411386  0.063570023   -2.1617547    1.0206161  1714209 
  276000    1.0103239   -2.1619747   -2.1619747   -1.1407661  0.057320698   -2.1619747    1.0212086  1714209 
  277000    1.0096366   -2.1611369   -2.1611369   -1.1406231  0.064546335   -2.1611369    1.0205139  1714209 
  278000     1.009899   -2.1618471   -2.1618471    -1.141068  0.062641686   -2.1618471    1.0207791  1714209 
  279000    1.0094816   -2.1612644   -2.1612644   -1.1409072  0.064025989   -2.1612644    1.0203572  1714209 
  280000    1.0106251   -2.1622994   -2.1622994   -1.1407864  0.068005603   -2.1622994    1.0215131  1714209 
  281000    1.0099163   -2.1619585   -2.1619585   -1.1411619  0.065306769   -2.1619585    1.0207966  1714209 
  282000    1.0099648   -2.1620666   -2.1620666   -1.1412209  0.063679682   -2.1620666    1.0208456  1714209 
  283000    1.0096196   -2.1619096   -2.1619096   -1.1414128  0.066400743   -2.1619096    1.0204967  1714209 
  284000    1.0096349   -2.1622823   -2.1622823   -1.1417701  0.062412709   -2.1622823    1.0205122  1714209 
  285000    1.0092452   -2.1618255   -2.1618255   -1.1417072  0.068229676   -2.1618255    1.0201183  1714209 
  286000    1.0101035   -2.1627398   -2.1627398    -1.141754  0.066064205   -2.1627398    1.0209858  1714209 
  287000    1.0102016   -2.1627063   -2.1627063   -1.1416214  0.067085865   -2.1627063    1.0210849  1714209 
  288000     1.010036   -2.1626921   -2.1626921   -1.1417745  0.060446005   -2.1626921    1.0209176  1714209 
  289000    1.0097004   -2.1620267   -2.1620267   -1.1414483  0.064194883   -2.1620267    1.0205784  1714209 
  290000    1.0105091    -2.162565    -2.162565   -1.1411692  0.063817084    -2.162565    1.0213958  1714209 
  291000    1.0097455   -2.1622167   -2.1622167   -1.1415928  0.067220263   -2.1622167    1.0206239  1714209 
  292000    1.0096247   -2.1620763   -2.1620763   -1.1415745  0.065033554   -2.1620763    1.0205019  1714209 
  293000    1.0094195   -2.1619186   -2.1619186   -1.1416242  0.066689443   -2.1619186    1.0202944  1714209 
  294000    1.0084901   -2.1612062   -2.1612062   -1.1418511   0.06450523   -2.1612062    1.0193551  1714209 
  295000     1.008102   -2.1608394   -2.1608394   -1.1418767   0.06270681   -2.1608394    1.0189628  1714209 
  296000    1.0091188   -2.1619802   -2.1619802   -1.1419896  0.062989105   -2.1619802    1.0199906  1714209 
  297000    1.0090249   -2.1622321   -2.1622321   -1.1423365  0.064496907   -2.1622321    1.0198956  1714209 
  298000    1.0091236   -2.1625031   -2.1625031   -1.1425077  0.062953072   -2.1625031    1.0199953  1714209 
  299000    1.0087341   -2.1619925   -2.1619925   -1.1423908  0.061671397   -2.1619925    1.0196017  1714209 
  300000    1.0089093   -2.1619038   -2.1619038   -1.1421251  0.064672502   -2.1619038    1.0197787  1714209 
  301000    1.0083267   -2.1615904   -2.1615904   -1.1424005  0.063505226   -2.1615904    1.0191899  1714209 
  302000    1.0090986   -2.1623135   -2.1623135   -1.1423434  0.063621517   -2.1623135    1.0199701  1714209 
  303000    1.0093423   -2.1626576   -2.1626576   -1.1424411  0.064955276   -2.1626576    1.0202165  1714209 
  304000    1.0089286   -2.1622882   -2.1622882   -1.1424899  0.062445757   -2.1622882    1.0197983  1714209 
  305000     1.009022   -2.1621544   -2.1621544   -1.1422617  0.071265633   -2.1621544    1.0198927  1714209 
  306000    1.0097268   -2.1627701   -2.1627701    -1.142165   0.06391986   -2.1627701     1.020605  1714209 
  307000    1.0088611   -2.1620726   -2.1620726   -1.1423426  0.064748607   -2.1620726    1.0197301  1714209 
  308000    1.0092575   -2.1622867   -2.1622867    -1.142156  0.062628806   -2.1622867    1.0201307  1714209 
  309000    1.0098495      -2.1632      -2.1632    -1.142471  0.062463005      -2.1632    1.0207291  1714209 
  310000    1.0094746   -2.1623807   -2.1623807   -1.1420305  0.068918346   -2.1623807    1.0203502  1714209 
  311000    1.0102925   -2.1635755   -2.1635755   -1.1423987  0.062063083   -2.1635755    1.0211768  1714209 
  312000    1.0091917   -2.1627535   -2.1627535   -1.1426893  0.061580998   -2.1627535    1.0200642  1714209 
  313000    1.0088712   -2.1625038   -2.1625038   -1.1427636  0.063457953   -2.1625038    1.0197402  1714209 
  314000    1.0085182   -2.1623407   -2.1623407   -1.1429573  0.062358121   -2.1623407    1.0193834  1714209 
  315000    1.0085011   -2.1624185   -2.1624185   -1.1430523  0.062169384   -2.1624185    1.0193661  1714209 
  316000    1.0100014   -2.1632051   -2.1632051   -1.1423225  0.063480817   -2.1632051    1.0208826  1714209 
  317000    1.0086758   -2.1625387   -2.1625387    -1.142996  0.067915419   -2.1625387    1.0195428  1714209 
  318000    1.0098212   -2.1632391   -2.1632391   -1.1425386  0.066348315   -2.1632391    1.0207005  1714209 
  319000    1.0107335   -2.1636088   -2.1636088   -1.1419862  0.064656503   -2.1636088    1.0216226  1714209 
  320000    1.0096505   -2.1624753   -2.1624753   -1.1419474  0.066139206   -2.1624753    1.0205279  1714209 
  321000    1.0100337   -2.1631782   -2.1631782   -1.1422629  0.063463231   -2.1631782    1.0209153  1714209 
  322000    1.0093613   -2.1626643   -2.1626643   -1.1424287  0.064824623   -2.1626643    1.0202356  1714209 
  323000    1.0091479   -2.1626721   -2.1626721   -1.1426522  0.062411517   -2.1626721    1.0200199  1714209 
  324000    1.0095274   -2.1631212   -2.1631212   -1.1427176  0.063696466   -2.1631212    1.0204035  1714209 
  325000    1.0088271   -2.1621694   -2.1621694   -1.1424736  0.066589172   -2.1621694    1.0196957  1714209 
  326000    1.0092683   -2.1625566   -2.1625566   -1.1424149  0.069099426   -2.1625566    1.0201416  1714209 
  327000    1.0114055   -2.1651176   -2.1651176   -1.1428158  0.060501912   -2.1651176    1.0223018  1714209 
  328000    1.0104418   -2.1638315   -2.1638315   -1.1425038  0.067104925   -2.1638315    1.0213278  1714209 
  329000    1.0096845   -2.1633498   -2.1633498   -1.1427875  0.065530636   -2.1633498    1.0205624  1714209 
  330000    1.0107629   -2.1640905   -2.1640905   -1.1424382  0.064582142   -2.1640905    1.0216523  1714209 
  331000    1.0107249   -2.1639331   -2.1639331   -1.1423192  0.063046748   -2.1639331     1.021614  1714209 
  332000    1.0108843   -2.1639402   -2.1639402   -1.1421651  0.063684794   -2.1639402    1.0217751  1714209 
  333000    1.0108761   -2.1639698   -2.1639698    -1.142203  0.064945902   -2.1639698    1.0217668  1714209 
  334000    1.0102974   -2.1633251   -2.1633251   -1.1421433  0.070553268   -2.1633251    1.0211818  1714209 
  335000    1.0093554   -2.1624716   -2.1624716    -1.142242  0.064467926   -2.1624716    1.0202296  1714209 
  336000    1.0100945   -2.1634372   -2.1634372   -1.1424605  0.064158664   -2.1634372    1.0209767  1714209 
  337000    1.0100974   -2.1633481   -2.1633481   -1.1423684  0.066896873   -2.1633481    1.0209797  1714209 
  338000    1.0094963   -2.1629293   -2.1629293   -1.1425572  0.068857232   -2.1629293    1.0203721  1714209 
  339000    1.0097586   -2.1632027   -2.1632027   -1.1425654  0.063976814   -2.1632027    1.0206373  1714209 
  340000    1.0101955    -2.163757    -2.163757   -1.1426781  0.066012163    -2.163757    1.0210788  1714209 
  341000    1.0096271    -2.163338    -2.163338   -1.1428338  0.066689472    -2.163338    1.0205043  1714209 
  342000    1.0097682   -2.1636752   -2.1636752   -1.1430283  0.068796848   -2.1636752    1.0206469  1714209 
  343000    1.0102472   -2.1643322   -2.1643322    -1.143201  0.060530832   -2.1643322    1.0211311  1714209 
  344000      1.00939   -2.1632111   -2.1632111   -1.1429465  0.063897028   -2.1632111    1.0202646  1714209 
  345000    1.0093287    -2.163046    -2.163046   -1.1428434  0.062325332    -2.163046    1.0202027  1714209 
  346000    1.0103031   -2.1639287   -2.1639287   -1.1427412  0.060876085   -2.1639287    1.0211876  1714209 
  347000    1.0100046   -2.1630854   -2.1630854   -1.1421995  0.063693492   -2.1630854    1.0208859  1714209 
  348000    1.0094363   -2.1628353   -2.1628353   -1.1425239  0.068747045   -2.1628353    1.0203114  1714209 
  349000    1.0101389   -2.1631081   -2.1631081   -1.1420864  0.061938575   -2.1631081    1.0210216  1714209 
  350000    1.0097872   -2.1630814   -2.1630814   -1.1424153  0.066947672   -2.1630814    1.0206661  1714209 
  351000    1.0089394   -2.1623939   -2.1623939   -1.1425847  0.063407638   -2.1623939    1.0198092  1714209 
  352000    1.0101554   -2.1630987   -2.1630987   -1.1420604  0.067080978   -2.1630987    1.0210383  1714209 
  353000     1.010615   -2.1635966   -2.1635966   -1.1420937  0.065881038   -2.1635966    1.0215028  1714209 
  354000    1.0097429    -2.162571    -2.162571   -1.1419496  0.065164497    -2.162571    1.0206214  1714209 
  355000    1.0101944   -2.1630494   -2.1630494   -1.1419717  0.064730107   -2.1630494    1.0210777  1714209 
  356000    1.0105832   -2.1632629   -2.1632629   -1.1417922  0.065682363   -2.1632629    1.0214707  1714209 
  357000     1.009174   -2.1616459   -2.1616459   -1.1415996  0.068518543   -2.1616459    1.0200464  1714209 
  358000    1.0091659   -2.1616794   -2.1616794   -1.1416412  0.062604179   -2.1616794    1.0200382  1714209 
  359000     1.010201   -2.1630445   -2.1630445   -1.1419601  0.068125212   -2.1630445    1.0210844  1714209 
  360000    1.0098564   -2.1623499   -2.1623499   -1.1416138  0.064323288   -2.1623499     1.020736  1714209 
  361000    1.0100383   -2.1627731   -2.1627731   -1.1418532  0.063544363   -2.1627731    1.0209199  1714209 
  362000    1.0101194     -2.16308     -2.16308    -1.142078  0.061999394     -2.16308    1.0210019  1714209 
  363000    1.0099889    -2.162371    -2.162371    -1.141501  0.063365561    -2.162371      1.02087  1714209 
  364000    1.0100852   -2.1628038   -2.1628038   -1.1418364  0.066380217   -2.1628038    1.0209673  1714209 
  365000    1.0101952   -2.1633231   -2.1633231   -1.1422446  0.059160379   -2.1633231    1.0210785  1714209 
  366000    1.0094968   -2.1630436   -2.1630436    -1.142671  0.064033487   -2.1630436    1.0203726  1714209 
  367000    1.0091144   -2.1627535   -2.1627535   -1.1427674  0.064389687   -2.1627535     1.019986  1714209 
  368000    1.0087666   -2.1619465   -2.1619465    -1.142312  0.064391166   -2.1619465    1.0196345  1714209 
  369000    1.0082461   -2.1619501   -2.1619501   -1.1428417   0.06194639   -2.1619501    1.0191085  1714209 
  370000    1.0091219   -2.1630754   -2.1630754   -1.1430817  0.062459179   -2.1630754    1.0199937  1714209 
  371000    1.0080761   -2.1617312   -2.1617312   -1.1427947  0.064289811   -2.1617312    1.0189365  1714209 
  372000    1.0088787   -2.1624245   -2.1624245   -1.1426767  0.063788943   -2.1624245    1.0197479  1714209 
  373000      1.00811   -2.1619184   -2.1619184   -1.1429475  0.063503879   -2.1619184    1.0189709  1714209 
  374000    1.0089096   -2.1627899   -2.1627899   -1.1430108  0.065174173   -2.1627899    1.0197791  1714209 
  375000    1.0090173   -2.1630445   -2.1630445   -1.1431566  0.062449176   -2.1630445    1.0198879  1714209 
  376000    1.0092803   -2.1633337   -2.1633337   -1.1431799  0.062999414   -2.1633337    1.0201537  1714209 
  377000    1.0079576   -2.1621456   -2.1621456   -1.1433288  0.068006744   -2.1621456    1.0188168  1714209 
  378000    1.0086041   -2.1625164   -2.1625164   -1.1430461  0.065265088   -2.1625164    1.0194703  1714209 
  379000    1.0089034   -2.1627733   -2.1627733   -1.1430005  0.064408529   -2.1627733    1.0197728  1714209 
  380000    1.0087247   -2.1624911   -2.1624911    -1.142899  0.063743771   -2.1624911    1.0195921  1714209 
  381000    1.0093726   -2.1639616   -2.1639616   -1.1437146   0.05850726   -2.1639616     1.020247  1714209 
  382000    1.0091307   -2.1632559   -2.1632559   -1.1432533  0.059703563   -2.1632559    1.0200025  1714209 
  383000    1.0096589   -2.1635528   -2.1635528   -1.1430164  0.063741644   -2.1635528    1.0205364  1714209 
  384000    1.0100475    -2.163653    -2.163653   -1.1427238   0.06117793    -2.163653    1.0209292  1714209 
  385000    1.0102344   -2.1640416   -2.1640416   -1.1429235  0.062872669   -2.1640416    1.0211181  1714209 
  386000    1.0088243   -2.1630839   -2.1630839   -1.1433911  0.064581721   -2.1630839    1.0196928  1714209 
  387000    1.0091196   -2.1635323   -2.1635323   -1.1435409  0.066622877   -2.1635323    1.0199914  1714209 
  388000    1.0095053   -2.1640519   -2.1640519   -1.1436707  0.065907147   -2.1640519    1.0203812  1714209 
  389000    1.0101774   -2.1645296   -2.1645296    -1.143469  0.063693941   -2.1645296    1.0210605  1714209 
  390000    1.0093431   -2.1634149   -2.1634149   -1.1431976  0.062497617   -2.1634149    1.0202173  1714209 
  391000     1.009885   -2.1638284   -2.1638284   -1.1430634  0.068577396   -2.1638284     1.020765  1714209 
  392000    1.0095361   -2.1635972   -2.1635972   -1.1431849  0.065299475   -2.1635972    1.0204123  1714209 
  393000    1.0093849   -2.1631803   -2.1631803   -1.1429208  0.065519067   -2.1631803    1.0202595  1714209 
  394000    1.0094608     -2.16303     -2.16303   -1.1426937  0.068605706     -2.16303    1.0203362  1714209 
  395000    1.0099208    -2.163383    -2.163383   -1.1425818  0.066187436    -2.163383    1.0208012  1714209 
  396000    1.0098196   -2.1634697   -2.1634697   -1.1427708   0.06638756   -2.1634697    1.0206989  1714209 
  397000     1.010325    -2.163826    -2.163826   -1.1426162  0.063107849    -2.163826    1.0212097  1714209 
  398000    1.0101367   -2.1636905   -2.1636905   -1.1426711  0.068569132   -2.1636905    1.0210194  1714209 
  399000    1.0101991   -2.1636365   -2.1636365    -1.142554  0.066944789   -2.1636365    1.0210825  1714209 
  400000    1.0100651   -2.1634035   -2.1634035   -1.1424565   0.06579724   -2.1634035     1.020947  1714209 
  401000     1.009396   -2.1633864   -2.1633864   -1.1431157  0.063101927   -2.1633864    1.0202707  1714209 
  402000    1.0100784   -2.1644004   -2.1644004   -1.1434399  0.060242916   -2.1644004    1.0209605  1714209 
  403000    1.0102819   -2.1649078   -2.1649078   -1.1437417  0.062003345   -2.1649078    1.0211661  1714209 
  404000    1.0107985   -2.1652061   -2.1652061   -1.1435177   0.06695883   -2.1652061    1.0216883  1714209 
  405000    1.0102006   -2.1643391   -2.1643391   -1.1432551  0.065555047   -2.1643391     1.021084  1714209 
  406000    1.0100903   -2.1642612   -2.1642612   -1.1432887  0.067690314   -2.1642612    1.0209725  1714209 
  407000    1.0099904   -2.1642816   -2.1642816   -1.1434101  0.068055704   -2.1642816    1.0208715  1714209 
  408000    1.0102912   -2.1646582   -2.1646582   -1.1434826  0.063136146   -2.1646582    1.0211755  1714209 
  409000    1.0100756   -2.1644049   -2.1644049   -1.1434473  0.063903608   -2.1644049    1.0209576  1714209 
  410000    1.0098509   -2.1640883   -2.1640883   -1.1433578  0.064731921   -2.1640883    1.0207305  1714209 
  411000    1.0094143   -2.1640999   -2.1640999   -1.1438107  0.069857959   -2.1640999    1.0202892  1714209 
  412000    1.0098632   -2.1648322   -2.1648322   -1.1440893  0.069694532   -2.1648322    1.0207429  1714209 
  413000     1.008636    -2.163883    -2.163883   -1.1443805   0.06064136    -2.163883    1.0195025  1714209 
  414000     1.009272   -2.1645192   -2.1645192   -1.1443739  0.064355766   -2.1645192    1.0201454  1714209 
  415000    1.0110886    -2.165954    -2.165954   -1.1439725  0.060803074    -2.165954    1.0219816  1714209 
  416000    1.0113311   -2.1664046   -2.1664046   -1.1441779  0.063834688   -2.1664046    1.0222267  1714209 
  417000    1.0093536   -2.1640252   -2.1640252   -1.1437973  0.064470331   -2.1640252    1.0202278  1714209 
  418000    1.0098326   -2.1649897   -2.1649897   -1.1442776  0.063122559   -2.1649897     1.020712  1714209 
  419000    1.0091088   -2.1645324   -2.1645324    -1.144552  0.066858266   -2.1645324    1.0199804  1714209 
  420000    1.0101411   -2.1653968   -2.1653968    -1.144373  0.064149385   -2.1653968    1.0210238  1714209 
  421000    1.0103078   -2.1657039   -2.1657039   -1.1445116  0.063964952   -2.1657039    1.0211924  1714209 
  422000    1.0093473   -2.1642217   -2.1642217   -1.1440002  0.063441882   -2.1642217    1.0202215  1714209 
  423000    1.0096662   -2.1646989   -2.1646989   -1.1441551  0.064360192   -2.1646989    1.0205438  1714209 
  424000    1.0092908   -2.1642354   -2.1642354    -1.144071  0.063847582   -2.1642354    1.0201644  1714209 
  425000    1.0091349   -2.1641213   -2.1641213   -1.1441145  0.068273638   -2.1641213    1.0200068  1714209 
  426000    1.0089586   -2.1639317   -2.1639317   -1.1441032  0.064181007   -2.1639317    1.0198286  1714209 
  427000    1.0105542   -2.1649339   -2.1649339   -1.1434925   0.06819046   -2.1649339    1.0214414  1714209 
  428000    1.0103262   -2.1649424   -2.1649424   -1.1437315  0.066390785   -2.1649424    1.0212109  1714209 
  429000    1.0099466   -2.1648325   -2.1648325   -1.1440053  0.063430117   -2.1648325    1.0208272  1714209 
  430000    1.0093524   -2.1641483   -2.1641483   -1.1439217  0.067635937   -2.1641483    1.0202266  1714209 
  431000     1.009971   -2.1649975   -2.1649975   -1.1441456  0.066836066   -2.1649975    1.0208519  1714209 
  432000    1.0091622   -2.1644045   -2.1644045   -1.1443702  0.063450215   -2.1644045    1.0200344  1714209 
  433000    1.0100301   -2.1652189   -2.1652189   -1.1443073  0.057831021   -2.1652189    1.0209117  1714209 
  434000    1.0088878   -2.1642493   -2.1642493   -1.1444923  0.067949272   -2.1642493    1.0197571  1714209 
  435000    1.0092663   -2.1642758   -2.1642758   -1.1441362  0.062065518   -2.1642758    1.0201396  1714209 
  436000    1.0091187   -2.1643601   -2.1643601   -1.1443697   0.06529446   -2.1643601    1.0199905  1714209 
  437000     1.008856   -2.1643344   -2.1643344   -1.1446095  0.066871077   -2.1643344    1.0197249  1714209 
  438000    1.0093772   -2.1646172   -2.1646172   -1.1443655  0.063826421   -2.1646172    1.0202517  1714209 
  439000    1.0096698   -2.1650638   -2.1650638   -1.1445164  0.067328465   -2.1650638    1.0205474  1714209 
  440000    1.0098065   -2.1650394   -2.1650394   -1.1443538  0.067411551   -2.1650394    1.0206856  1714209 
  441000    1.0086849   -2.1640323   -2.1640323   -1.1444804  0.064201515   -2.1640323    1.0195519  1714209 
  442000    1.0097491   -2.1652732   -2.1652732   -1.1446455  0.064542574   -2.1652732    1.0206276  1714209 
  443000    1.0090907   -2.1647855   -2.1647855   -1.1448234  0.065720652   -2.1647855    1.0199621  1714209 
  444000    1.0093517   -2.1648703   -2.1648703   -1.1446444  0.062195847   -2.1648703     1.020226  1714209 
  445000    1.0092545   -2.1650131   -2.1650131   -1.1448854  0.060375773   -2.1650131    1.0201277  1714209 
  446000    1.0096572   -2.1651123   -2.1651123   -1.1445775  0.061808608   -2.1651123    1.0205347  1714209 
  447000    1.0089655     -2.16459     -2.16459   -1.1447544   0.06318524     -2.16459    1.0198356  1714209 
  448000    1.0097309   -2.1649466   -2.1649466   -1.1443374  0.069518732   -2.1649466    1.0206092  1714209 
  449000    1.0099656   -2.1649991   -2.1649991   -1.1441527  0.066078821   -2.1649991    1.0208465  1714209 
  450000    1.0102028   -2.1648821   -2.1648821   -1.1437959   0.06005265   -2.1648821    1.0210862  1714209 
  451000     1.010639   -2.1649874   -2.1649874   -1.1434603  0.065755339   -2.1649874    1.0215271  1714209 
  452000     1.010345   -2.1650623   -2.1650623   -1.1438323  0.061412036   -2.1650623      1.02123  1714209 
  453000    1.0097511   -2.1647286   -2.1647286    -1.144099  0.066485941   -2.1647286    1.0206296  1714209 
  454000    1.0099096   -2.1643414   -2.1643414   -1.1435516  0.065707297   -2.1643414    1.0207898  1714209 
  455000     1.009664   -2.1645537   -2.1645537   -1.1440121  0.065655961   -2.1645537    1.0205416  1714209 
  456000    1.0109701   -2.1656121   -2.1656121   -1.1437503  0.067447452   -2.1656121    1.0218618  1714209 
  457000    1.0104929   -2.1649559   -2.1649559   -1.1435765  0.066178081   -2.1649559    1.0213794  1714209 
  458000    1.0105807   -2.1651126   -2.1651126   -1.1436444  0.068287614   -2.1651126    1.0214682  1714209 
  459000    1.0104699   -2.1651051   -2.1651051   -1.1437489  0.068332788   -2.1651051    1.0213562  1714209 
  460000    1.0120208   -2.1658547   -2.1658547   -1.1429308  0.066502827   -2.1658547    1.0229238  1714209 
  461000    1.0109298   -2.1647659   -2.1647659   -1.1429449   0.07027816   -2.1647659     1.021821  1714209 
  462000    1.0110856   -2.1652268   -2.1652268   -1.1432483  0.069643546   -2.1652268    1.0219785  1714209 
  463000    1.0108897   -2.1654809   -2.1654809   -1.1437004  0.063755508   -2.1654809    1.0217805  1714209 
  464000    1.0095077   -2.1643032   -2.1643032   -1.1439197  0.066638705   -2.1643032    1.0203836  1714209 
  465000    1.0098498   -2.1645786   -2.1645786   -1.1438492   0.06753992   -2.1645786    1.0207294  1714209 
  466000    1.0091212   -2.1641835   -2.1641835   -1.1441905  0.069665314   -2.1641835     1.019993  1714209 
  467000    1.0109577   -2.1657714   -2.1657714   -1.1439222  0.064354684   -2.1657714    1.0218492  1714209 
  468000    1.0095449   -2.1645451   -2.1645451    -1.144124  0.064074962   -2.1645451    1.0204212  1714209 
  469000     1.009287   -2.1645896   -2.1645896   -1.1444291  0.060473293   -2.1645896    1.0201605  1714209 
  470000    1.0085142   -2.1637029   -2.1637029   -1.1443234   0.06320125   -2.1637029    1.0193794  1714209 
  471000     1.008856   -2.1644293   -2.1644293   -1.1447045    0.0687077   -2.1644293    1.0197249  1714209 
  472000    1.0086477   -2.1644279   -2.1644279   -1.1449135   0.06266574   -2.1644279    1.0195143  1714209 
  473000    1.0097189   -2.1653299   -2.1653299   -1.1447328  0.063715321   -2.1653299    1.0205971  1714209 
  474000    1.0090347   -2.1647253   -2.1647253   -1.1448197  0.071290702   -2.1647253    1.0199056  1714209 
  475000    1.0101351    -2.165665    -2.165665   -1.1446473  0.061472058    -2.165665    1.0210177  1714209 
  476000    1.0103911   -2.1657767   -2.1657767   -1.1445001  0.061745226   -2.1657767    1.0212766  1714209 
  477000    1.0086348   -2.1641513   -2.1641513     -1.14465  0.061804311   -2.1641513    1.0195013  1714209 
  478000    1.0088873    -2.164118    -2.164118   -1.1443614  0.065062721    -2.164118    1.0197565  1714209 
  479000    1.0091116   -2.1644743   -2.1644743    -1.144491  0.065371205   -2.1644743    1.0199833  1714209 
  480000    1.0090317   -2.1645055   -2.1645055    -1.144603   0.06346807   -2.1645055    1.0199025  1714209 
  481000    1.0095977   -2.1646944   -2.1646944   -1.1442198  0.064223136   -2.1646944    1.0204746  1714209 
  482000    1.0094075   -2.1643548   -2.1643548   -1.1440725  0.068275293   -2.1643548    1.0202823  1714209 
  483000    1.0095578   -2.1645674   -2.1645674   -1.1441332  0.067059998   -2.1645674    1.0204343  1714209 
  484000     1.008853   -2.1641236   -2.1641236   -1.1444018  0.063447405   -2.1641236    1.0197218  1714209 
  485000    1.0099955   -2.1653623   -2.1653623   -1.1444857  0.066760118   -2.1653623    1.0208766  1714209 
  486000    1.0099156   -2.1652621   -2.1652621   -1.1444663  0.064959499   -2.1652621    1.0207959  1714209 
  487000    1.0092213   -2.1645211   -2.1645211    -1.144427  0.062364578   -2.1645211    1.0200941  1714209 
  488000    1.0101602   -2.1655212   -2.1655212   -1.1444781  0.062168397   -2.1655212    1.0210432  1714209 
  489000    1.0098819   -2.1652552   -2.1652552   -1.1444934  0.065046839   -2.1652552    1.0207619  1714209 
  490000    1.0090563   -2.1643954   -2.1643954   -1.1444681  0.066106628   -2.1643954    1.0199274  1714209 
  491000    1.0096521   -2.1647542   -2.1647542   -1.1442246  0.068161453   -2.1647542    1.0205296  1714209 
  492000     1.010495   -2.1658065   -2.1658065    -1.144425  0.067026005   -2.1658065    1.0213816  1714209 
  493000    1.0087334   -2.1639738   -2.1639738   -1.1443728  0.063073361   -2.1639738     1.019601  1714209 
  494000     1.010101   -2.1644837   -2.1644837   -1.1435005  0.065788519   -2.1644837    1.0209833  1714209 
  495000    1.0101073   -2.1649134   -2.1649134   -1.1439237   0.06434648   -2.1649134    1.0209897  1714209 
  496000    1.0093148   -2.1641087   -2.1641087     -1.14392  0.065653553   -2.1641087    1.0201887  1714209 
  497000    1.0102018   -2.1647344   -2.1647344   -1.1436492  0.064318306   -2.1647344    1.0210852  1714209 
  498000    1.0099326   -2.1649463   -2.1649463   -1.1441332  0.065040606   -2.1649463    1.0208131  1714209 
  499000    1.0098853   -2.1651545   -2.1651545   -1.1443893  0.066894886   -2.1651545    1.0207653  1714209 
  500000    1.0091766   -2.1643083   -2.1643083   -1.1442594  0.063139698   -2.1643083    1.0200489  1714209 
  501000    1.0102392   -2.1651121   -2.1651121   -1.1439891  0.068646385   -2.1651121     1.021123  1714209 
  502000    1.0106043   -2.1658217   -2.1658217   -1.1443297  0.064467278   -2.1658217     1.021492  1714209 
  503000    1.0104753   -2.1657342   -2.1657342   -1.1443726  0.067381451   -2.1657342    1.0213616  1714209 
  504000    1.0100565   -2.1647863   -2.1647863    -1.143848  0.070668602   -2.1647863    1.0209383  1714209 
  505000    1.0107093   -2.1655549   -2.1655549   -1.1439568  0.063706832   -2.1655549    1.0215982  1714209 
  506000     1.010349   -2.1652253   -2.1652253   -1.1439913  0.064809482   -2.1652253     1.021234  1714209 
  507000    1.0098654   -2.1652423   -2.1652423   -1.1444971  0.062502429   -2.1652423    1.0207452  1714209 
  508000    1.0099962   -2.1657195   -2.1657195    -1.144842  0.062803282   -2.1657195    1.0208774  1714209 
  509000    1.0091837   -2.1645649   -2.1645649   -1.1445088  0.065493277   -2.1645649    1.0200561  1714209 
  510000    1.0090443   -2.1645647   -2.1645647   -1.1446495  0.065189744   -2.1645647    1.0199152  1714209 
  511000    1.0095873   -2.1655619   -2.1655619   -1.1450978  0.067493109   -2.1655619    1.0204641  1714209 
  512000    1.0101004   -2.1657713   -2.1657713   -1.1447885  0.069030488   -2.1657713    1.0209827  1714209 
  513000    1.0096913   -2.1654353   -2.1654353   -1.1448661  0.068276343   -2.1654353    1.0205692  1714209 
  514000    1.0093079   -2.1649903   -2.1649903   -1.1448086  0.067581309   -2.1649903    1.0201817  1714209 
  515000    1.0093587   -2.1652048   -2.1652048   -1.1449718  0.069724734   -2.1652048     1.020233  1714209 
  516000    1.0095603   -2.1652709   -2.1652709   -1.1448341  0.065711766   -2.1652709    1.0204368  1714209 
  517000    1.0098987   -2.1657896   -2.1657896   -1.1450107  0.066000192   -2.1657896    1.0207789  1714209 
  518000    1.0103389   -2.1659584   -2.1659584   -1.1447346   0.06553599   -2.1659584    1.0212237  1714209 
  519000    1.0099455   -2.1656979   -2.1656979   -1.1448717   0.06323796   -2.1656979    1.0208262  1714209 
  520000    1.0085987   -2.1648896   -2.1648896   -1.1454247  0.066303203   -2.1648896    1.0194648  1714209 
  521000    1.0087912   -2.1649547   -2.1649547   -1.1452953  0.062776919   -2.1649547    1.0196594  1714209 
  522000    1.0090112   -2.1651638   -2.1651638    -1.145282  0.067894171   -2.1651638    1.0198818  1714209 
  523000    1.0092993   -2.1653354   -2.1653354   -1.1451624  0.063823639   -2.1653354     1.020173  1714209 
  524000    1.0096247   -2.1656294   -2.1656294   -1.1451276  0.063052992   -2.1656294    1.0205019  1714209 
  525000    1.0093427   -2.1646484   -2.1646484   -1.1444316  0.063605959   -2.1646484    1.0202169  1714209 
  526000    1.0096338   -2.1649708   -2.1649708   -1.1444597   0.06651482   -2.1649708    1.0205111  1714209 
  527000    1.0090823   -2.1649565   -2.1649565   -1.1450029  0.063003278   -2.1649565    1.0199536  1714209 
  528000    1.0099921   -2.1654338   -2.1654338   -1.1445605   0.06355669   -2.1654338    1.0208733  1714209 
  529000    1.0096783   -2.1650249   -2.1650249   -1.1444689  0.065375973   -2.1650249     1.020556  1714209 
  530000    1.0101507   -2.1656278   -2.1656278   -1.1445942  0.066379109   -2.1656278    1.0210336  1714209 
  531000    1.0097727   -2.1651074   -2.1651074    -1.144456  0.064270962   -2.1651074    1.0206514  1714209 
  532000    1.0094999   -2.1648075   -2.1648075   -1.1444318  0.070622053   -2.1648075    1.0203757  1714209 
  533000    1.0097152   -2.1647399   -2.1647399   -1.1441466  0.065498965   -2.1647399    1.0205934  1714209 
  534000    1.0091085    -2.164093    -2.164093   -1.1441128  0.066305875    -2.164093    1.0199801  1714209 
  535000    1.0096379   -2.1649424   -2.1649424   -1.1444272  0.064416149   -2.1649424    1.0205152  1714209 
  536000    1.0102542   -2.1651421   -2.1651421    -1.144004  0.061428149   -2.1651421    1.0211382  1714209 
  537000    1.0094223    -2.164502    -2.164502   -1.1442047  0.068228352    -2.164502    1.0202973  1714209 
  538000    1.0096663   -2.1643003   -2.1643003   -1.1437564  0.066515278   -2.1643003    1.0205439  1714209 
  539000    1.0093676    -2.164268    -2.164268    -1.144026  0.065942004    -2.164268     1.020242  1714209 
  540000    1.0106417   -2.1658381   -2.1658381   -1.1443083  0.065438993   -2.1658381    1.0215298  1714209 
  541000    1.0092485   -2.1645925   -2.1645925   -1.1444709  0.062034496   -2.1645925    1.0201216  1714209 
  542000    1.0095847   -2.1650786   -2.1650786   -1.1446171  0.062130823   -2.1650786    1.0204615  1714209 
  543000    1.0094443   -2.1651269   -2.1651269   -1.1448073  0.064415929   -2.1651269    1.0203196  1714209 
  544000    1.0094404   -2.1647789   -2.1647789   -1.1444634  0.063473927   -2.1647789    1.0203156  1714209 
  545000    1.0091048   -2.1648471   -2.1648471   -1.1448708  0.064039049   -2.1648471    1.0199764  1714209 
  546000    1.0085538   -2.1643051   -2.1643051   -1.1448857  0.060651906   -2.1643051    1.0194195  1714209 
  547000    1.0088016   -2.1641433   -2.1641433   -1.1444734  0.065060418   -2.1641433    1.0196699  1714209 
  548000    1.0088844   -2.1640893   -2.1640893   -1.1443357  0.069391711   -2.1640893    1.0197536  1714209 
  549000    1.0091498   -2.1644673   -2.1644673   -1.1444455  0.061406934   -2.1644673    1.0200218  1714209 
  550000    1.0089574   -2.1647942   -2.1647942   -1.1449668   0.06420103   -2.1647942    1.0198274  1714209 
  551000     1.009193    -2.164439    -2.164439   -1.1443735  0.065797683    -2.164439    1.0200655  1714209 
  552000    1.0095151   -2.1643325   -2.1643325   -1.1439414   0.06205632   -2.1643325    1.0203911  1714209 
  553000    1.0092895   -2.1644791   -2.1644791    -1.144316  0.061794472   -2.1644791    1.0201631  1714209 
  554000    1.0081517    -2.163217    -2.163217   -1.1442041  0.069335717    -2.163217     1.019013  1714209 
  555000    1.0097112   -2.1648401   -2.1648401   -1.1442508  0.065967816   -2.1648401    1.0205893  1714209 
  556000    1.0093527   -2.1642656   -2.1642656   -1.1440387  0.066101216   -2.1642656    1.0202269  1714209 
  557000    1.0092581   -2.1642517   -2.1642517   -1.1441203  0.065636482   -2.1642517    1.0201313  1714209 
  558000    1.0096924    -2.164492    -2.164492   -1.1439217   0.06477301    -2.164492    1.0205703  1714209 
  559000    1.0094986   -2.1639891   -2.1639891   -1.1436147  0.068612716   -2.1639891    1.0203744  1714209 
  560000    1.0094059    -2.164269    -2.164269   -1.1439883   0.06838838    -2.164269    1.0202807  1714209 
  561000    1.0099155   -2.1648388   -2.1648388    -1.144043   0.06356703   -2.1648388    1.0207958  1714209 
  562000     1.009379   -2.1644964   -2.1644964   -1.1442429  0.065732891   -2.1644964    1.0202535  1714209 
  563000    1.0101869   -2.1654927   -2.1654927   -1.1444225   0.06283602   -2.1654927    1.0210702  1714209 
  564000     1.008399   -2.1638544   -2.1638544   -1.1445915  0.063937755   -2.1638544    1.0192629  1714209 
  565000    1.0086082   -2.1643029   -2.1643029   -1.1448284  0.067253377   -2.1643029    1.0194745  1714209 
  566000    1.0092586   -2.1648475   -2.1648475   -1.1447156  0.065372121   -2.1648475    1.0201319  1714209 
  567000    1.0095612   -2.1644991   -2.1644991   -1.1440614  0.067606328   -2.1644991    1.0204377  1714209 
  568000    1.0088885   -2.1641308   -2.1641308   -1.1443731  0.064092857   -2.1641308    1.0197577  1714209 
  569000    1.0095891    -2.164614    -2.164614   -1.1441481  0.067879443    -2.164614    1.0204659  1714209 
  570000    1.0102996   -2.1654229   -2.1654229   -1.1442388    0.0634445   -2.1654229    1.0211841  1714209 
  571000    1.0094385   -2.1647141   -2.1647141   -1.1444004  0.069209141   -2.1647141    1.0203137  1714209 
  572000    1.0100947   -2.1654487   -2.1654487   -1.1444717  0.066880884   -2.1654487     1.020977  1714209 
  573000    1.0096622    -2.165224    -2.165224   -1.1446842  0.065480064    -2.165224    1.0205398  1714209 
  574000    1.0097722   -2.1646743   -2.1646743   -1.1440233  0.063448071   -2.1646743     1.020651  1714209 
  575000    1.0096275   -2.1645923   -2.1645923   -1.1440876  0.066611254   -2.1645923    1.0205047  1714209 
  576000    1.0100581   -2.1650497   -2.1650497   -1.1441098   0.06139873   -2.1650497      1.02094  1714209 
  577000    1.0102607   -2.1652784   -2.1652784   -1.1441336  0.060204355   -2.1652784    1.0211448  1714209 
  578000    1.0100374   -2.1649901   -2.1649901   -1.1440712  0.065672855   -2.1649901     1.020919  1714209 
  579000    1.0100332   -2.1650952   -2.1650952   -1.1441804  0.065908875   -2.1650952    1.0209148  1714209 
  580000    1.0098432   -2.1652833   -2.1652833   -1.1445605  0.063843455   -2.1652833    1.0207228  1714209 
  581000    1.0092054   -2.1649624   -2.1649624   -1.1448843  0.063280591   -2.1649624    1.0200781  1714209 
  582000    1.0094747   -2.1651608   -2.1651608   -1.1448105   0.06643466   -2.1651608    1.0203503  1714209 
  583000    1.0102146   -2.1659238   -2.1659238   -1.1448257  0.068290712   -2.1659238    1.0210981  1714209 
  584000    1.0105322   -2.1665637   -2.1665637   -1.1451445  0.063173254   -2.1665637    1.0214192  1714209 
  585000     1.009745   -2.1657732   -2.1657732   -1.1451497  0.068895975   -2.1657732    1.0206234  1714209 
  586000    1.0102997   -2.1658293   -2.1658293   -1.1446451  0.066240368   -2.1658293    1.0211841  1714209 
  587000    1.0107099   -2.1659188   -2.1659188   -1.1443201  0.064677387   -2.1659188    1.0215987  1714209 
  588000    1.0108726   -2.1663058   -2.1663058   -1.1445426  0.064447474   -2.1663058    1.0217632  1714209 
  589000    1.0095231   -2.1647211   -2.1647211   -1.1443219  0.064153523   -2.1647211    1.0203992  1714209 
  590000    1.0102112   -2.1654934   -2.1654934   -1.1443987  0.064059765   -2.1654934    1.0210947  1714209 
  591000    1.0091251   -2.1642349   -2.1642349   -1.1442381  0.065809931   -2.1642349    1.0199968  1714209 
  592000    1.0100026   -2.1655285   -2.1655285   -1.1446447  0.069827861   -2.1655285    1.0208839  1714209 
  593000    1.0097923   -2.1651378   -2.1651378   -1.1444666  0.064469084   -2.1651378    1.0206712  1714209 
  594000    1.0107791   -2.1657959   -2.1657959   -1.1441273  0.065519562   -2.1657959    1.0216687  1714209 
  595000    1.0107882   -2.1660156   -2.1660156   -1.1443377  0.062002466   -2.1660156    1.0216779  1714209 
  596000    1.0105334   -2.1661018   -2.1661018   -1.1446814  0.061042605   -2.1661018    1.0214204  1714209 
  597000    1.0100602   -2.1654256   -2.1654256   -1.1444835  0.066248134   -2.1654256    1.0209421  1714209 
  598000    1.0095983   -2.1650866   -2.1650866   -1.1446114  0.066224562   -2.1650866    1.0204752  1714209 
  599000    1.0105386   -2.1659237   -2.1659237    -1.144498  0.063260655   -2.1659237    1.0214257  1714209 
  600000    1.0108773   -2.1657501   -2.1657501   -1.1439822  0.068613801   -2.1657501    1.0217679  1714209 
  601000    1.0098258   -2.1651277   -2.1651277   -1.1444226  0.067837474   -2.1651277    1.0207051  1714209 
  602000    1.0099535   -2.1653268   -2.1653268   -1.1444926  0.067527675   -2.1653268    1.0208342  1714209 
  603000    1.0110472   -2.1661966   -2.1661966   -1.1442569  0.065645631   -2.1661966    1.0219397  1714209 
  604000     1.010337   -2.1657703   -2.1657703   -1.1445485  0.067414427   -2.1657703    1.0212218  1714209 
  605000    1.0099046   -2.1649605   -2.1649605   -1.1441757  0.067553571   -2.1649605    1.0207848  1714209 
  606000    1.0095953   -2.1651296   -2.1651296   -1.1446575  0.065587618   -2.1651296    1.0204721  1714209 
  607000    1.0087619   -2.1644076   -2.1644076   -1.1447778  0.066459198   -2.1644076    1.0196298  1714209 
  608000    1.0089005   -2.1647938   -2.1647938    -1.145024  0.063577994   -2.1647938    1.0197698  1714209 
  609000    1.0073938    -2.163331    -2.163331    -1.145084  0.062046898    -2.163331     1.018247  1714209 
  610000    1.0094591   -2.1655264   -2.1655264   -1.1451919  0.063068962   -2.1655264    1.0203345  1714209 
  611000    1.0095533   -2.1656457   -2.1656457    -1.145216  0.064575014   -2.1656457    1.0204297  1714209 
  612000    1.0093809   -2.1650034   -2.1650034   -1.1447479  0.066982029   -2.1650034    1.0202554  1714209 
  613000    1.0091981   -2.1647495   -2.1647495   -1.1446788  0.066349365   -2.1647495    1.0200707  1714209 
  614000    1.0096171   -2.1652274   -2.1652274   -1.1447332  0.064874358   -2.1652274    1.0204942  1714209 
  615000    1.0082847   -2.1644955   -2.1644955   -1.1453481  0.068435104   -2.1644955    1.0191474  1714209 
  616000    1.0094833   -2.1655615   -2.1655615   -1.1452026  0.065714768   -2.1655615     1.020359  1714209 
  617000    1.0088586    -2.164891    -2.164891   -1.1451635  0.064616816    -2.164891    1.0197276  1714209 
  618000    1.0088768    -2.164461    -2.164461   -1.1447151  0.065612253    -2.164461    1.0197459  1714209 
  619000    1.0093224   -2.1646575   -2.1646575   -1.1444612  0.061602777   -2.1646575    1.0201963  1714209 
  620000     1.009525   -2.1651139   -2.1651139   -1.1447127  0.064213162   -2.1651139    1.0204011  1714209 
  621000     1.009159   -2.1646549   -2.1646549   -1.1446238  0.065779979   -2.1646549    1.0200311  1714209 
  622000    1.0096785   -2.1651485   -2.1651485   -1.1445922  0.067986106   -2.1651485    1.0205563  1714209 
  623000    1.0096065   -2.1651064   -2.1651064   -1.1446229  0.070887678   -2.1651064    1.0204835  1714209 
  624000     1.009337   -2.1648137   -2.1648137   -1.1446026  0.065353578   -2.1648137     1.020211  1714209 
  625000    1.0102432   -2.1660767   -2.1660767   -1.1449496  0.066512734   -2.1660767     1.021127  1714209 
  626000    1.0092488   -2.1651971   -2.1651971   -1.1450752  0.062422879   -2.1651971    1.0201219  1714209 
  627000    1.0090708   -2.1651669   -2.1651669   -1.1452249  0.061057691   -2.1651669     1.019942  1714209 
  628000    1.0092348   -2.1650614   -2.1650614   -1.1449536  0.062106137   -2.1650614    1.0201077  1714209 
  629000    1.0100317   -2.1656465   -2.1656465   -1.1447332  0.062444667   -2.1656465    1.0209133  1714209 
  630000    1.0087495   -2.1643966   -2.1643966   -1.1447793  0.064863616   -2.1643966    1.0196172  1714209 
  631000     1.009427   -2.1652549   -2.1652549   -1.1449528  0.067070578   -2.1652549    1.0203021  1714209 
  632000    1.0097519   -2.1652325   -2.1652325    -1.144602  0.068465938   -2.1652325    1.0206304  1714209 
  633000    1.0099868   -2.1653679   -2.1653679      -1.1445  0.065882244   -2.1653679    1.0208679  1714209 
  634000    1.0095989   -2.1649552   -2.1649552   -1.1444793  0.065110346   -2.1649552    1.0204758  1714209 
  635000    1.0098627   -2.1655032   -2.1655032   -1.1447608  0.065633402   -2.1655032    1.0207424  1714209 
  636000     1.009024   -2.1646104   -2.1646104   -1.1447157  0.065781516   -2.1646104    1.0198947  1714209 
  637000    1.0094062   -2.1648596   -2.1648596   -1.1445786  0.065788137   -2.1648596    1.0202811  1714209 
  638000    1.0101388   -2.1656915   -2.1656915     -1.14467  0.067889918   -2.1656915    1.0210215  1714209 
  639000    1.0093871   -2.1650539   -2.1650539   -1.1447922  0.063831386   -2.1650539    1.0202617  1714209 
  640000    1.0107576   -2.1663012   -2.1663012   -1.1446542  0.062261458   -2.1663012     1.021647  1714209 
  641000    1.0098719   -2.1653567   -2.1653567    -1.144605  0.067153007   -2.1653567    1.0207518  1714209 
  642000    1.0106319   -2.1661016   -2.1661016   -1.1445817  0.068096015   -2.1661016    1.0215199  1714209 
[...]
 9832000    1.0110577    -2.170329    -2.170329   -1.1483787  0.074341871    -2.170329    1.0219503  1714209 
 9833000    1.0113277   -2.1705578   -2.1705578   -1.1483345  0.067464418   -2.1705578    1.0222233  1714209 
 9834000    1.0115046   -2.1704042   -2.1704042   -1.1480022  0.073805036   -2.1704042     1.022402  1714209 
 9835000    1.0108268   -2.1697894   -2.1697894   -1.1480724   0.07305673   -2.1697894    1.0217169  1714209 
 9836000    1.0123429   -2.1711446   -2.1711446   -1.1478952  0.071980723   -2.1711446    1.0232494  1714209 
 9837000    1.0116617   -2.1707423   -2.1707423   -1.1481815  0.072653019   -2.1707423    1.0225608  1714209 
 9838000     1.011549   -2.1709602   -2.1709602   -1.1485134  0.067304087   -2.1709602    1.0224469  1714209 
 9839000    1.0109669   -2.1707617   -2.1707617   -1.1489031  0.070194906   -2.1707617    1.0218585  1714209 
 9840000    1.0122849   -2.1722585   -2.1722585   -1.1490678  0.068436244   -2.1722585    1.0231907  1714209 
 9841000    1.0114978   -2.1710239   -2.1710239   -1.1486288  0.070897122   -2.1710239    1.0223952  1714209 
 9842000    1.0112376   -2.1708374   -2.1708374   -1.1487053  0.070260111   -2.1708374    1.0221321  1714209 
 9843000    1.0111768     -2.17074     -2.17074   -1.1486693  0.068284494     -2.17074    1.0220707  1714209 
 9844000     1.010647   -2.1703548   -2.1703548   -1.1488196  0.065511108   -2.1703548    1.0215352  1714209 
 9845000    1.0111073   -2.1703301   -2.1703301   -1.1483297  0.071193673   -2.1703301    1.0220004  1714209 
 9846000    1.0112529    -2.170858    -2.170858   -1.1487104  0.075533263    -2.170858    1.0221476  1714209 
 9847000    1.0107829   -2.1705317   -2.1705317   -1.1488591  0.071746268   -2.1705317    1.0216726  1714209 
 9848000    1.0112679   -2.1711454   -2.1711454   -1.1489827  0.069708652   -2.1711454    1.0221628  1714209 
 9849000    1.0119666   -2.1716534   -2.1716534   -1.1487844  0.068522684   -2.1716534     1.022869  1714209 
 9850000    1.0113181   -2.1710728   -2.1710728   -1.1488593  0.070904346   -2.1710728    1.0222135  1714209 
 9851000     1.011863   -2.1714398   -2.1714398   -1.1486755  0.071388866   -2.1714398    1.0227643  1714209 
 9852000    1.0113013   -2.1703881   -2.1703881   -1.1481916   0.07174158   -2.1703881    1.0221965  1714209 
 9853000    1.0114096   -2.1702206   -2.1702206   -1.1479147  0.073759691   -2.1702206     1.022306  1714209 
 9854000    1.0121654   -2.1705762   -2.1705762   -1.1475063  0.070612722   -2.1705762    1.0230699  1714209 
 9855000    1.0126815   -2.1708021   -2.1708021   -1.1472106  0.071370532   -2.1708021    1.0235916  1714209 
 9856000    1.0117842   -2.1701774   -2.1701774   -1.1474928  0.071107861   -2.1701774    1.0226846  1714209 
 9857000    1.0112539   -2.1699327   -2.1699327    -1.147784  0.074115739   -2.1699327    1.0221486  1714209 
 9858000    1.0121617   -2.1707701   -2.1707701   -1.1477038  0.067666169   -2.1707701    1.0230663  1714209 
 9859000    1.0119265    -2.170779    -2.170779   -1.1479505  0.070037944    -2.170779    1.0228285  1714209 
 9860000    1.0118942   -2.1715275   -2.1715275   -1.1487316  0.072345614   -2.1715275    1.0227958  1714209 
 9861000    1.0119538   -2.1718498   -2.1718498   -1.1489938  0.068411967   -2.1718498    1.0228561  1714209 
 9862000    1.0115223   -2.1713305   -2.1713305   -1.1489106   0.07068576   -2.1713305    1.0224199  1714209 
 9863000    1.0123283   -2.1717426   -2.1717426   -1.1485079  0.074133316   -2.1717426    1.0232347  1714209 
 9864000    1.0105622   -2.1698988   -2.1698988   -1.1484493  0.070469411   -2.1698988    1.0214495  1714209 
 9865000    1.0108457   -2.1704765   -2.1704765   -1.1487405   0.06690101   -2.1704765     1.021736  1714209 
 9866000    1.0105364   -2.1705527   -2.1705527   -1.1491292  0.065958929   -2.1705527    1.0214234  1714209 
 9867000     1.010292   -2.1700022   -2.1700022   -1.1488258  0.067240309   -2.1700022    1.0211764  1714209 
 9868000    1.0105844   -2.1704714   -2.1704714   -1.1489995  0.071255525   -2.1704714    1.0214719  1714209 
 9869000    1.0109902    -2.170454    -2.170454   -1.1485719   0.06680102    -2.170454    1.0218821  1714209 
 9870000     1.010319   -2.1699755   -2.1699755   -1.1487719  0.069201009   -2.1699755    1.0212036  1714209 
 9871000    1.0112863   -2.1712919   -2.1712919   -1.1491105   0.06956508   -2.1712919    1.0221814  1714209 
 9872000     1.009526   -2.1695866   -2.1695866   -1.1491845  0.066465538   -2.1695866    1.0204021  1714209 
 9873000    1.0112998    -2.170922    -2.170922    -1.148727  0.067659416    -2.170922     1.022195  1714209 
 9874000    1.0114098   -2.1709369   -2.1709369   -1.1486306  0.071249863   -2.1709369    1.0223063  1714209 
 9875000    1.0118603   -2.1715513   -2.1715513   -1.1487898  0.073408994   -2.1715513    1.0227615  1714209 
 9876000    1.0100974   -2.1697987   -2.1697987    -1.148819  0.073524462   -2.1697987    1.0209797  1714209 
 9877000    1.0110916    -2.171314    -2.171314   -1.1493295  0.071642654    -2.171314    1.0219845  1714209 
 9878000    1.0105796   -2.1705201   -2.1705201   -1.1490531  0.068004866   -2.1705201     1.021467  1714209 
 9879000    1.0114108   -2.1714134   -2.1714134   -1.1491062  0.071630069   -2.1714134    1.0223072  1714209 
 9880000    1.0110067   -2.1709356   -2.1709356   -1.1490369  0.073358027   -2.1709356    1.0218987  1714209 
 9881000    1.0115911    -2.171519    -2.171519   -1.1490296   0.07061299    -2.171519    1.0224894  1714209 
 9882000    1.0116373    -2.171793    -2.171793   -1.1492568  0.071258674    -2.171793    1.0225362  1714209 
 9883000    1.0111006   -2.1717292   -2.1717292   -1.1497355  0.070923262   -2.1717292    1.0219937  1714209 
 9884000    1.0117032   -2.1720413   -2.1720413   -1.1494385  0.067512706   -2.1720413    1.0226028  1714209 
 9885000    1.0121986   -2.1728021   -2.1728021   -1.1496986  0.069314852   -2.1728021    1.0231035  1714209 
 9886000    1.0107415   -2.1718115   -2.1718115   -1.1501807  0.073052472   -2.1718115    1.0216308  1714209 
 9887000    1.0112945   -2.1726912   -2.1726912   -1.1505016  0.071099558   -2.1726912    1.0221896  1714209 
 9888000    1.0105155   -2.1717384   -2.1717384    -1.150336  0.070781652   -2.1717384    1.0214023  1714209 
 9889000    1.0108773    -2.172042    -2.172042    -1.150274  0.069789026    -2.172042     1.021768  1714209 
 9890000    1.0110476   -2.1722315   -2.1722315   -1.1502915  0.074298867   -2.1722315    1.0219401  1714209 
 9891000    1.0114613   -2.1723298   -2.1723298   -1.1499716  0.069899351   -2.1723298    1.0223582  1714209 
 9892000    1.0112653   -2.1720689   -2.1720689   -1.1499088  0.072062559   -2.1720689    1.0221602  1714209 
 9893000    1.0111849   -2.1716031   -2.1716031   -1.1495242  0.071898073   -2.1716031    1.0220789  1714209 
 9894000    1.0105726   -2.1709476   -2.1709476   -1.1494875  0.066200856   -2.1709476      1.02146  1714209 
 9895000    1.0116992   -2.1724695   -2.1724695   -1.1498707  0.069500324   -2.1724695    1.0225988  1714209 
 9896000    1.0110613   -2.1719855   -2.1719855   -1.1500316  0.068344114   -2.1719855     1.021954  1714209 
 9897000    1.0114098   -2.1717381   -2.1717381   -1.1494319  0.071514788   -2.1717381    1.0223062  1714209 
 9898000    1.0125993   -2.1728652   -2.1728652   -1.1493567  0.072981289   -2.1728652    1.0235085  1714209 
 9899000    1.0122231   -2.1725018   -2.1725018   -1.1493735  0.071512277   -2.1725018    1.0231282  1714209 
 9900000    1.0121044   -2.1722033   -2.1722033    -1.149195  0.068677145   -2.1722033    1.0230083  1714209 
 9901000    1.0115189   -2.1720329   -2.1720329   -1.1496165  0.071796049   -2.1720329    1.0224164  1714209 
 9902000    1.0119671   -2.1723705   -2.1723705    -1.149501  0.071960571   -2.1723705    1.0228695  1714209 
 9903000    1.0113289   -2.1718753   -2.1718753   -1.1496509  0.073048455   -2.1718753    1.0222244  1714209 
 9904000    1.0112682   -2.1718234   -2.1718234   -1.1496603  0.068703013   -2.1718234    1.0221631  1714209 
 9905000    1.0113816   -2.1721014   -2.1721014   -1.1498237  0.069203901   -2.1721014    1.0222777  1714209 
 9906000    1.0116403   -2.1722854   -2.1722854   -1.1497463  0.073981216   -2.1722854    1.0225392  1714209 
 9907000    1.0110073   -2.1713612   -2.1713612   -1.1494619  0.066537703   -2.1713612    1.0218994  1714209 
 9908000    1.0105698   -2.1711826   -2.1711826   -1.1497255  0.075088728   -2.1711826    1.0214571  1714209 
 9909000    1.0108127    -2.171611    -2.171611   -1.1499083  0.073048612    -2.171611    1.0217027  1714209 
 9910000    1.0101133   -2.1712721   -2.1712721   -1.1502764  0.066408856   -2.1712721    1.0209957  1714209 
 9911000    1.0105444   -2.1711052   -2.1711052   -1.1496736  0.066219339   -2.1711052    1.0214315  1714209 
 9912000    1.0100744   -2.1704467   -2.1704467   -1.1494903  0.066277856   -2.1704467    1.0209564  1714209 
 9913000    1.0105326   -2.1709855   -2.1709855   -1.1495659  0.067882204   -2.1709855    1.0214196  1714209 
 9914000    1.0108124   -2.1715711   -2.1715711   -1.1498688  0.066376213   -2.1715711    1.0217023  1714209 
 9915000    1.0109857   -2.1721191   -2.1721191   -1.1502415  0.065436212   -2.1721191    1.0218776  1714209 
 9916000    1.0101321   -2.1713574   -2.1713574   -1.1503426  0.070031594   -2.1713574    1.0210148  1714209 
 9917000    1.0099963   -2.1712278   -2.1712278   -1.1503503  0.069127677   -2.1712278    1.0208775  1714209 
 9918000    1.0102005   -2.1716643   -2.1716643   -1.1505803   0.06865367   -2.1716643    1.0210839  1714209 
 9919000     1.010149   -2.1711117   -2.1711117   -1.1500799   0.07194193   -2.1711117    1.0210318  1714209 
 9920000    1.0110467   -2.1712133   -2.1712133   -1.1492741  0.068576021   -2.1712133    1.0219392  1714209 
 9921000    1.0102887    -2.170524    -2.170524    -1.149351  0.065780987    -2.170524     1.021173  1714209 
 9922000    1.0099335   -2.1700583   -2.1700583   -1.1492443  0.066907966   -2.1700583     1.020814  1714209 
 9923000    1.0107509   -2.1707148   -2.1707148   -1.1490745  0.071617858   -2.1707148    1.0216402  1714209 
 9924000    1.0103866   -2.1702877   -2.1702877   -1.1490157   0.06985666   -2.1702877    1.0212719  1714209 
 9925000    1.0112447    -2.170981    -2.170981   -1.1488417  0.069133407    -2.170981    1.0221393  1714209 
 9926000    1.0112022   -2.1707251   -2.1707251   -1.1486287  0.069312335   -2.1707251    1.0220964  1714209 
 9927000    1.0105271   -2.1698013   -2.1698013   -1.1483873  0.072306215   -2.1698013     1.021414  1714209 
 9928000    1.0109197   -2.1705132   -2.1705132   -1.1487023  0.066255343   -2.1705132    1.0218109  1714209 
 9929000    1.0113993    -2.171378    -2.171378   -1.1490824  0.072387035    -2.171378    1.0222956  1714209 
 9930000    1.0119235    -2.171739    -2.171739   -1.1489135  0.069749848    -2.171739    1.0228255  1714209 
 9931000    1.0105607   -2.1705978   -2.1705978   -1.1491499  0.068447663   -2.1705978    1.0214479  1714209 
 9932000    1.0114007   -2.1713534   -2.1713534   -1.1490564  0.070923187   -2.1713534    1.0222971  1714209 
 9933000    1.0106622   -2.1706481   -2.1706481   -1.1490976  0.068886664   -2.1706481    1.0215506  1714209 
 9934000    1.0113305    -2.171079    -2.171079   -1.1488529  0.070041059    -2.171079    1.0222261  1714209 
 9935000    1.0108907    -2.170535    -2.170535   -1.1487535  0.068709123    -2.170535    1.0217815  1714209 
 9936000    1.0100898   -2.1695906   -2.1695906   -1.1486186  0.068048421   -2.1695906     1.020972  1714209 
 9937000    1.0105167   -2.1703696   -2.1703696   -1.1489661  0.074638662   -2.1703696    1.0214035  1714209 
 9938000    1.0107709   -2.1705341   -2.1705341   -1.1488736  0.064700925   -2.1705341    1.0216604  1714209 
 9939000      1.01006   -2.1700207   -2.1700207   -1.1490788   0.06852073   -2.1700207    1.0209419  1714209 
 9940000    1.0101929   -2.1700769   -2.1700769   -1.1490007  0.065490495   -2.1700769    1.0210762  1714209 
 9941000    1.0104002   -2.1708803   -2.1708803   -1.1495946  0.067797605   -2.1708803    1.0212857  1714209 
 9942000    1.0108537   -2.1715086   -2.1715086   -1.1497645  0.073072969   -2.1715086    1.0217441  1714209 
 9943000    1.0116018   -2.1720246   -2.1720246   -1.1495243  0.071796279   -2.1720246    1.0225003  1714209 
 9944000    1.0111295   -2.1714055   -2.1714055   -1.1493826  0.073699816   -2.1714055    1.0220229  1714209 
 9945000    1.0109082   -2.1709186   -2.1709186   -1.1491194  0.070530022   -2.1709186    1.0217992  1714209 
 9946000      1.01162   -2.1719083   -2.1719083   -1.1493896  0.065017924   -2.1719083    1.0225187  1714209 
 9947000    1.0125606   -2.1726078   -2.1726078   -1.1491384  0.068134013   -2.1726078    1.0234694  1714209 
 9948000    1.0112892   -2.1711813   -2.1711813    -1.148997  0.073995927   -2.1711813    1.0221843  1714209 
 9949000    1.0123774   -2.1720531   -2.1720531   -1.1487689  0.073143047   -2.1720531    1.0232842  1714209 
 9950000    1.0123915   -2.1715742   -2.1715742   -1.1482757  0.078614034   -2.1715742    1.0232984  1714209 
 9951000    1.0126089   -2.1714559   -2.1714559   -1.1479377  0.072001073   -2.1714559    1.0235182  1714209 
 9952000    1.0126425   -2.1719018   -2.1719018   -1.1483496  0.071591079   -2.1719018    1.0235521  1714209 
 9953000    1.0125997   -2.1719102   -2.1719102   -1.1484012  0.068736081   -2.1719102     1.023509  1714209 
 9954000    1.0132318   -2.1725844   -2.1725844   -1.1484366   0.07045835   -2.1725844    1.0241478  1714209 
 9955000    1.0122252   -2.1721084   -2.1721084    -1.148978  0.074511451   -2.1721084    1.0231304  1714209 
 9956000     1.012331   -2.1725676   -2.1725676   -1.1493303  0.070750349   -2.1725676    1.0232373  1714209 
 9957000    1.0112949    -2.171207    -2.171207    -1.149017  0.073162823    -2.171207    1.0221901  1714209 
 9958000    1.0115708   -2.1717033   -2.1717033   -1.1492343   0.07301497   -2.1717033     1.022469  1714209 
 9959000    1.0116821   -2.1714691   -2.1714691   -1.1488877  0.069632268   -2.1714691    1.0225814  1714209 
 9960000    1.0115266   -2.1715439   -2.1715439   -1.1491196  0.068652987   -2.1715439    1.0224243  1714209 
 9961000     1.011662   -2.1715372   -2.1715372   -1.1489761  0.070582358   -2.1715372    1.0225612  1714209 
 9962000     1.011656   -2.1718895   -2.1718895   -1.1493345  0.072647764   -2.1718895    1.0225551  1714209 
 9963000    1.0112474   -2.1715313   -2.1715313   -1.1493892  0.067720869   -2.1715313    1.0221421  1714209 
 9964000    1.0112388   -2.1715321   -2.1715321   -1.1493988  0.070729729   -2.1715321    1.0221333  1714209 
 9965000    1.0113639   -2.1714286   -2.1714286   -1.1491688  0.068538309   -2.1714286    1.0222598  1714209 
 9966000    1.0101489    -2.170097    -2.170097   -1.1490653  0.076619419    -2.170097    1.0210317  1714209 
 9967000    1.0110675   -2.1704621   -2.1704621   -1.1485019  0.071759953   -2.1704621    1.0219602  1714209 
 9968000    1.0109394   -2.1705755   -2.1705755   -1.1487447  0.068851766   -2.1705755    1.0218308  1714209 
 9969000    1.0113856   -2.1708802   -2.1708802   -1.1485984  0.068134393   -2.1708802    1.0222817  1714209 
 9970000    1.0117337    -2.170936    -2.170936   -1.1483025  0.070423696    -2.170936    1.0226336  1714209 
 9971000    1.0121387   -2.1709258   -2.1709258   -1.1478828  0.072442873   -2.1709258    1.0230429  1714209 
 9972000    1.0125665   -2.1718869   -2.1718869   -1.1484116  0.066544987   -2.1718869    1.0234753  1714209 
 9973000    1.0114666   -2.1714743   -2.1714743   -1.1491107  0.068166914   -2.1714743    1.0223637  1714209 
 9974000    1.0113298   -2.1715504   -2.1715504   -1.1493251  0.070752013   -2.1715504    1.0222254  1714209 
 9975000    1.0110137   -2.1711559   -2.1711559     -1.14925  0.068255225   -2.1711559    1.0219059  1714209 
 9976000      1.01096   -2.1710434   -2.1710434   -1.1491918  0.068633252   -2.1710434    1.0218515  1714209 
 9977000    1.0114038   -2.1709198   -2.1709198   -1.1486197  0.067978986   -2.1709198    1.0223002  1714209 
 9978000    1.0116834   -2.1715862   -2.1715862   -1.1490035  0.070535342   -2.1715862    1.0225827  1714209 
 9979000    1.0109807   -2.1710586   -2.1710586   -1.1491861  0.069489908   -2.1710586    1.0218724  1714209 
 9980000    1.0107856    -2.170756    -2.170756   -1.1490807  0.071332469    -2.170756    1.0216752  1714209 
 9981000    1.0117712   -2.1712082   -2.1712082   -1.1485366  0.069699041   -2.1712082    1.0226715  1714209 
 9982000    1.0110293   -2.1699968   -2.1699968   -1.1480753  0.068841975   -2.1699968    1.0219216  1714209 
 9983000    1.0105014   -2.1698049   -2.1698049   -1.1484169  0.072211463   -2.1698049     1.021388  1714209 
 9984000    1.0110887   -2.1708005   -2.1708005   -1.1488189  0.065024011   -2.1708005    1.0219816  1714209 
 9985000    1.0107112   -2.1701687   -2.1701687   -1.1485687  0.070972636   -2.1701687    1.0216001  1714209 
 9986000    1.0119193   -2.1714144   -2.1714144   -1.1485932  0.071514099   -2.1714144    1.0228212  1714209 
 9987000    1.0119198   -2.1714533   -2.1714533   -1.1486316  0.068907136   -2.1714533    1.0228217  1714209 
 9988000    1.0118815   -2.1705322   -2.1705322   -1.1477493  0.075144054   -2.1705322     1.022783  1714209 
 9989000    1.0118037   -2.1703733   -2.1703733    -1.147669  0.074987288   -2.1703733    1.0227044  1714209 
 9990000    1.0114497   -2.1700938   -2.1700938   -1.1477473  0.069984665   -2.1700938    1.0223465  1714209 
 9991000    1.0110562   -2.1700856   -2.1700856   -1.1481369  0.077164464   -2.1700856    1.0219488  1714209 
 9992000    1.0112278   -2.1701096   -2.1701096   -1.1479874  0.076315474   -2.1701096    1.0221223  1714209 
 9993000    1.0117164   -2.1705507   -2.1705507   -1.1479345  0.071238801   -2.1705507    1.0226161  1714209 
 9994000    1.0111799   -2.1701162   -2.1701162   -1.1480423  0.069684923   -2.1701162    1.0220738  1714209 
 9995000    1.0114326    -2.170486    -2.170486   -1.1481568  0.075219768    -2.170486    1.0223292  1714209 
 9996000    1.0121403   -2.1715165   -2.1715165   -1.1484719  0.071252147   -2.1715165    1.0230446  1714209 
 9997000    1.0111138   -2.1704255   -2.1704255   -1.1484185   0.06992781   -2.1704255     1.022007  1714209 
 9998000    1.0128658   -2.1720038   -2.1720038   -1.1482259  0.067381606   -2.1720038    1.0237779  1714209 
 9999000     1.012622   -2.1716064   -2.1716064   -1.1480749  0.070476783   -2.1716064    1.0235315  1714209 
10000000    1.0124287   -2.1716715   -2.1716715   -1.1483354  0.073402655   -2.1716715    1.0233361  1714209 
Loop time of 19737.1 on 768 procs for 10000000 steps with 1714209 atoms

Performance: 218877.483 tau/day, 506.661 timesteps/s
91.5% CPU use with 768 MPI tasks x 1 OpenMP threads

MPI task timing breakdown:
Section |  min time  |  avg time  |  max time  |%varavg|  %CPU | %total
-----------------------------------------------------------------------
Pair    | 1665.9     | 4455       | 6650.9     |1424.1 |  93.0 | 22.57
Bond    | 6.2803     | 6.8489     | 7.4982     |   5.8 | 100.0 |  0.03
Neigh   | 1733.8     | 4258.4     | 5680.5     |1046.3 |  98.8 | 21.58
Comm    | 3830.8     | 6648.5     | 11305      |1560.3 |  88.5 | 33.69
Output  | 484.95     | 487.34     | 490.01     |   7.6 |  80.7 |  2.47
Modify  | 2513.3     | 3546.1     | 4674.9     | 645.9 |  89.0 | 17.97
Other   |            | 334.8      |            |       |       |  1.70

Nlocal:        2232.04 ave        2895 max        1671 min
Histogram: 4 26 105 164 194 123 75 53 18 6
Nghost:        5646.30 ave        8806 max        1807 min
Histogram: 32 49 44 37 82 148 196 110 59 11
Neighs:        42522.5 ave       68335 max       11486 min
Histogram: 43 6 26 103 101 156 177 97 12 47

Total # of neighbors = 32657251
Ave neighs/atom = 19.050916
Ave special neighs/atom = 0.0000000
Neighbor list builds = 1000000
Dangerous builds = 990000

Total wall time: 5:29:14
