LAMMPS (24 Dec 2020)
OMP_NUM_THREADS environment is not set. Defaulting to 1 thread. (src/comm.cpp:94)
  using 1 OpenMP thread(s) per MPI task
#Read the equilibrated lj fluid and add nanocubes

units           lj
atom_style      full
#atom_modify     map array first cubes
dimension       3
boundary        p p f
pair_style      lj/smooth/linear 2.0

variable        sigma           equal 1.0
variable        epsilon         equal 1.0
read_restart	restart.dat.5000000
Reading restart file ...
  restart file = 24 Dec 2020, LAMMPS = 24 Dec 2020
WARNING: Restart file used different # of processors: 288 vs. 336 (src/read_restart.cpp:697)
  restoring atom style full from restart
  orthogonal box = (0.0000000 0.0000000 0.0000000) to (80.000000 80.000000 160.00000)
  6 by 4 by 14 MPI processor grid
  restoring pair style lj/smooth/linear from restart
  421013 atoms
Finding 1-2 1-3 1-4 neighbors ...
  special bond factors lj:    0        0        0       
  special bond factors coul:  0        0        0       
     0 = max # of 1-2 neighbors
     0 = max # of 1-3 neighbors
     0 = max # of 1-4 neighbors
     1 = max # of special neighbors
  special bonds CPU = 2.666 seconds
  read_restart CPU = 3.117 seconds

group		solvent type 1
311285 atoms in group solvent
group 		hull  type 2
42816 atoms in group hull
group 		dummy type 3
66912 atoms in group dummy

neighbor      0.4 bin
neigh_modify  exclude molecule/intra cubes


pair_modify   shift yes

pair_coeff    1 1 1.0 1.0 #solvent
pair_coeff    2 2 1.0 1.0 1.12 #np
pair_coeff    3 3 0.0 0.0 0.0 #dummy
pair_coeff    2 3 0.0 0.0 0.0 #np dummy
pair_coeff    1 2 ${eps} ${sig} ${nscut} #np solvent
pair_coeff    1 2 2.0 ${sig} ${nscut} 
pair_coeff    1 2 2.0 1.0 ${nscut} 
pair_coeff    1 2 2.0 1.0 4.0 
pair_coeff    1 3 0.0 0.0 0.0 #dummy solvent


comm_modify   mode multi cutoff/multi 1 2.0 cutoff/multi 2 2.0 cutoff/multi 3 6.95

reset_timestep 	0

balance 	1.05 shift z 10 1.05
Balancing ...
Unused restart file global fix info:
  fix style: STORE, fix ID: msd_COMPUTE_STORE
Unused restart file peratom fix info:
  fix style: STORE, fix ID: bin1_COMPUTE_STORE
Neighbor list info ...
  update every 1 steps, delay 10 steps, check yes
  max neighbors/atom: 2000, page size: 100000
  master list distance cutoff = 4.4
  ghost atom cutoff = 6.95
  binsize = 2.2, bins = 37 37 73
  1 neighbor lists, perpetual/occasional/extra = 1 0 0
  (1) pair lj/smooth/linear, perpetual
      attributes: half, newton on
      pair build: half/bin/newton
      stencil: half/bin/3d/newton
      bin: standard
 rebalancing time: 0.075 seconds
  iteration count = 6
  initial/final maximal load/proc = 2775.0000 3910.0000
  initial/final imbalance factor  = 2.2146585 3.1204737
  x cuts: 0.0000000 0.16666667 0.33333333 0.50000000 0.66666667 0.83333333 1.0000000
  y cuts: 0.0000000 0.25000000 0.50000000 0.75000000 1.0000000
  z cuts: 0.0000000 0.043526786 0.081473214 0.11830357 0.15848214 0.19308036 0.23102679 0.27232143 0.30803571 0.34709821 0.38504464 0.43415179 0.47544643 0.59933036 1.0000000

####################### WALLS ###########################

variable       epsilonWall equal 2*${epsilon}
variable       epsilonWall equal 2*1
variable       repulsive   equal   0.7147*${sigma}
variable       repulsive   equal   0.7147*1
variable       full	   equal   3*${sigma}
variable       full	   equal   3*1
#region         lowWall block EDGE EDGE EDGE EDGE EDGE 2

fix            topWall all wall/lj93 zhi EDGE 	       ${epsilonWall} ${sigma} ${repulsive} units box
fix            topWall all wall/lj93 zhi EDGE 	       2 ${sigma} ${repulsive} units box
fix            topWall all wall/lj93 zhi EDGE 	       2 1 ${repulsive} units box
fix            topWall all wall/lj93 zhi EDGE 	       2 1 0.7147 units box
fix            lowSol solvent wall/lj93 zlo EDGE                ${epsilonWall} ${sigma} ${full} units box
fix            lowSol solvent wall/lj93 zlo EDGE                2 ${sigma} ${full} units box
fix            lowSol solvent wall/lj93 zlo EDGE                2 1 ${full} units box
fix            lowSol solvent wall/lj93 zlo EDGE                2 1 3 units box
fix 	       lowCub cubes wall/lj93 zlo EDGE                ${epsilonWall} ${sigma} ${repulsive} units box
fix 	       lowCub cubes wall/lj93 zlo EDGE                2 ${sigma} ${repulsive} units box
fix 	       lowCub cubes wall/lj93 zlo EDGE                2 1 ${repulsive} units box
fix 	       lowCub cubes wall/lj93 zlo EDGE                2 1 0.7147 units box


###################### COMPUTES ##########################

compute        bin1 solvent chunk/atom bin/1d z lower 1.0 units box


######################  FIXES ############################


fix             peclet solvent ave/chunk 100 1 10000 bin1 density/number norm                  none ave one file density.profile

fix              temp solvent ave/chunk 100 1 10000 bin1 temp norm                  none ave one file temp.profile

fix             1 cubes rigid/nve/small molecule
  create bodies CPU = 0.039 seconds
  96 rigid bodies with 109728 atoms
  6.9282032 = max distance from body owner to body atom

fix             2 solvent nve


## Thermostat
region          regthermo block EDGE EDGE EDGE EDGE 0 15
group           thermo dynamic solvent region regthermo every 1000
dynamic group thermo defined
fix             3 thermo langevin ${temp} ${temp} 10 156453
fix             3 thermo langevin 0.6 ${temp} 10 156453
fix             3 thermo langevin 0.6 0.6 10 156453

## Evaporation
region		regevap block EDGE EDGE EDGE EDGE 140 EDGE
fix		4 solvent evaporate ${evap} 1 regevap 156415
fix		4 solvent evaporate 185 1 regevap 156415


#### Load balancing

fix             bal all balance 1000 1.05 shift z 10 1.05

############### Diagnostics and computes ###################

compute          cluster all cluster/atom 1.5
compute          cc1 all chunk/atom c_cluster compress yes
compute          size all property/chunk cc1 count
compute          myChunk all temp/chunk cc1 temp
fix              tempe all ave/time 5000 1 5000 c_myChunk file tmp.out mode scalar
compute          comChunk all com/chunk cc1
fix              com all ave/time 10000 1 10000 c_size c_comChunk[*] file com.xyz mode vector


compute        	com cubes          rigid/local   1 mol x y z
compute        	quat cubes         rigid/local   1 mol quatw quati quatj quatk

compute 	cc2 cubes 	   chunk/atom 	 molecule
compute 	msd cubes 	   msd/chunk 	 cc2

fix 		msd all ave/time  1 1 10000 c_msd[*] file dump.msd ave one mode vector

dump            1 all custom 100000 dump.lammpstrj id mol type x y z c_cluster c_cc1
dump		hulltrj hull custom 100000 hull.lammpstrj id mol type x y z
dump		cubestrj cubes custom 100000 cubes.lammpstrj id mol type x y z

dump            com cubes local 100000 dump.*.xyz c_com[*]
dump	        xyz cubes xyz 100000 cubes.*.xyz
dump            quat cubes      local 100000 dump.*.quat c_quat[*]


dump            2 all image 10000 image.*.png type type zoom 1.5 size 1280 720
dump_modify     2 pad 8
dump		image cubes image 10000 image_cubes.*.png type type zoom 1.5 size 1280 720
dump_modify	image pad 8
dump            3 all movie 5000 movie.avi type type zoom 1.5 size 1280 720
dump		4 cubes movie 5000 movie_cubes.avi type type zoom 1.5 size 1280 720


thermo          10000
thermo_style    custom step temp epair evdwl etotal press pe ke atoms

restart         1000000 restart.dat
timestep        0.005
timer           full
New timer settings: style=full  mode=nosync  timeout=off

run 		30000000
Neighbor list info ...
  update every 1 steps, delay 10 steps, check yes
  max neighbors/atom: 2000, page size: 100000
  master list distance cutoff = 4.4
  ghost atom cutoff = 6.95
  binsize = 2.2, bins = 37 37 73
  2 neighbor lists, perpetual/occasional/extra = 1 1 0
  (1) pair lj/smooth/linear, perpetual
      attributes: half, newton on
      pair build: half/bin/newton
      stencil: half/bin/3d/newton
      bin: standard
  (2) compute cluster/atom, occasional
      attributes: full, newton on
      pair build: full/bin
      stencil: full/bin/3d
      bin: standard
Per MPI rank memory allocation (min/avg/max) = 29.12 | 36.55 | 40.90 Mbytes
Step Temp E_pair E_vdwl TotEng Press PotEng KinEng Atoms 
       0   0.60382083   -2.7430657   -2.7430657   -2.0729829  0.096275053   -2.7430657   0.67008274   421013 
   10000   0.60207948   -2.7402694   -2.7402694   -2.0720334  0.036032035   -2.7402694   0.66823601   420959 
   20000   0.60303153   -2.7437412   -2.7437412   -2.0743627  0.027788761   -2.7437412   0.66937853   420905 
   30000   0.60387836   -2.7446441   -2.7446441   -2.0742395  0.028063174   -2.7446441   0.67040455   420851 
   40000    0.6024882   -2.7439716   -2.7439716   -2.0750245  0.035041483   -2.7439716   0.66894708   420797 
   50000   0.60480973   -2.7474294   -2.7474294   -2.0758185  0.035481495   -2.7474294   0.67161088   420743 
   60000   0.60245716   -2.7444948   -2.7444948   -2.0754105  0.034352618   -2.7444948   0.66908434   420689 
   70000   0.60412545   -2.7467037   -2.7467037   -2.0756804  0.037922995   -2.7467037   0.67102326   420635 
   80000   0.60397305   -2.7467133   -2.7467133   -2.0757732  0.032249842   -2.7467133   0.67094012   420581 
   90000    0.6023243   -2.7442868   -2.7442868   -2.0750924  0.041980868   -2.7442868   0.66919447   420527 
  100000   0.60334029   -2.7474645   -2.7474645   -2.0770552  0.043408014   -2.7474645   0.67040935   420473 
  110000   0.60215324   -2.7460264   -2.7460264   -2.0768501  0.024358899   -2.7460264   0.66917629   420419 
  120000    0.6011578   -2.7478472   -2.7478472   -2.0796913  0.039320674   -2.7478472   0.66815587   420365 
  130000   0.60178274   -2.7479032   -2.7479032   -2.0789668  0.030913817   -2.7479032   0.66893639   420311 
  140000   0.60128685   -2.7468901   -2.7468901    -2.078419  0.038287214   -2.7468901   0.66847104   420257 
  150000   0.60271938   -2.7488277   -2.7488277    -2.078678  0.034341098   -2.7488277   0.67014974   420203 
  160000    0.6020331   -2.7491125   -2.7491125   -2.0796398  0.025160321   -2.7491125   0.66947272   420149 
  170000   0.59972024   -2.7481047   -2.7481047   -2.0811182  0.036062773   -2.7481047    0.6669865   420095 
  180000   0.60152307   -2.7481866   -2.7481866   -2.0791091  0.027003094   -2.7481866   0.66907754   420041 
  190000   0.60163809   -2.7510146   -2.7510146   -2.0817215  0.037372271   -2.7510146   0.66929312   419986 
  200000   0.60220842   -2.7503979   -2.7503979   -2.0803842  0.030925769   -2.7503979   0.67001373   419932 
  210000   0.60105827   -2.7507381   -2.7507381    -2.081918   0.02605315   -2.7507381   0.66882009   419878 
  220000   0.60136126   -2.7511604   -2.7511604   -2.0819171  0.029299124   -2.7511604    0.6692433   419824 
  230000   0.60017933   -2.7519161   -2.7519161   -2.0839022  0.024949529   -2.7519161   0.66801387   419770 
  240000   0.60010158   -2.7510517   -2.7510517   -2.0830384  0.032626922   -2.7510517   0.66801328   419716 
  250000   0.60215863     -2.75334     -2.75334   -2.0829506  0.033145114     -2.75334   0.67038937   419662 
  260000   0.60077585   -2.7527527   -2.7527527   -2.0838167  0.032092363   -2.7527527   0.66893598   419608 
  270000   0.59987024   -2.7502822   -2.7502822   -2.0822686  0.042187626   -2.7502822   0.66801359   419554 
  280000   0.60013245   -2.7512925   -2.7512925   -2.0829009  0.039870902   -2.7512925   0.66839161   419500 
  290000   0.60031106   -2.7541218   -2.7541218   -2.0854452  0.047048887   -2.7541218   0.66867662   419446 
  300000     0.600348   -2.7550153   -2.7550153   -2.0862115  0.035539556   -2.7550153   0.66880386   419392 
  310000   0.59997307    -2.754127    -2.754127   -2.0856548  0.028788548    -2.754127   0.66847225   419338 
  320000   0.59846846   -2.7541324   -2.7541324   -2.0872506  0.035855849   -2.7541324   0.66688174   419284 
  330000   0.59919722   -2.7563286   -2.7563286   -2.0885488  0.027884003   -2.7563286   0.66777981   419230 
  340000   0.59955037   -2.7562107   -2.7562107   -2.0879513  0.044210736   -2.7562107   0.66825946   419176 
  350000   0.60085786   -2.7584712   -2.7584712   -2.0886682  0.020796348   -2.7584712   0.66980307   419122 
  360000   0.60081805   -2.7582391   -2.7582391   -2.0883941  0.034595358   -2.7582391     0.669845   419068 
  370000   0.59909814   -2.7584165   -2.7584165   -2.0904014    0.0261677   -2.7584165   0.66801516   419013 
  380000   0.59961776   -2.7570156   -2.7570156   -2.0883349  0.038742025   -2.7570156   0.66868074   418959 
  390000   0.59899906   -2.7563325   -2.7563325   -2.0882556  0.030659136   -2.7563325   0.66807688   418905 
  400000   0.59819424    -2.755121    -2.755121   -2.0878557   0.02146754    -2.755121   0.66726527   418851 
  410000   0.59860647   -2.7600791   -2.7600791   -2.0922679  0.034369035   -2.7600791   0.66781119   418797 
  420000   0.59913879   -2.7597028   -2.7597028   -2.0912115  0.028678083   -2.7597028   0.66849125   418743 
  430000   0.59860295   -2.7595634   -2.7595634   -2.0915839  0.037797259   -2.7595634   0.66797952   418689 
  440000    0.5989809   -2.7597504   -2.7597504   -2.0912629  0.030740893   -2.7597504   0.66848749   418635 
  450000   0.59701103   -2.7569762   -2.7569762   -2.0906012    0.0283334   -2.7569762   0.66637499   418581 
  460000   0.59831974   -2.7583598   -2.7583598   -2.0904379  0.036804064   -2.7583598   0.66792193   418527 
  470000   0.59806008   -2.7593802   -2.7593802    -2.091662  0.027887227   -2.7593802   0.66771821   418473 
  480000   0.59706249    -2.758873    -2.758873   -2.0921825  0.036345053    -2.758873   0.66669046   418419 
  490000   0.59761036   -2.7603367   -2.7603367   -2.0929483  0.028041897   -2.7603367   0.66738835   418365 
  500000   0.59744733   -2.7611859   -2.7611859   -2.0938935  0.037066263   -2.7611859   0.66729242   418311 
  510000   0.59576924   -2.7591202   -2.7591202   -2.0936161  0.020951325   -2.7591202   0.66550406   418257 
  520000   0.59695809   -2.7607077   -2.7607077   -2.0937895  0.034253577   -2.7607077   0.66691816   418203 
  530000    0.5976088   -2.7604281   -2.7604281   -2.0926968  0.030605533   -2.7604281   0.66773135   418149 
  540000   0.59635174   -2.7607454   -2.7607454   -2.0943326  0.019492966   -2.7607454   0.66641285   418095 
  550000   0.59753534   -2.7624613   -2.7624613   -2.0946396  0.027659684   -2.7624613   0.66782176   418041 
  560000   0.59723563   -2.7617192   -2.7617192   -2.0941446  0.033401422   -2.7617192   0.66757463   417986 
  570000   0.59647433   -2.7613626   -2.7613626   -2.0945527  0.048138796   -2.7613626   0.66680981   417932 
  580000   0.59549767   -2.7603112   -2.7603112   -2.0945072  0.041909395   -2.7603112   0.66580401   417878 
  590000   0.59553053   -2.7608377   -2.7608377   -2.0949108  0.032744978   -2.7608377   0.66592681   417824 
  600000   0.59564428   -2.7611629   -2.7611629   -2.0950228  0.025697013   -2.7611629    0.6661401   417770 
  610000   0.59681564   -2.7606971   -2.7606971   -2.0931608  0.034849969   -2.7606971   0.66753637   417716 
  620000   0.59562663   -2.7611094   -2.7611094   -2.0948168  0.030588987   -2.7611094    0.6662926   417662 
  630000   0.59607015   -2.7620548   -2.7620548   -2.0951798  0.027510487   -2.7620548   0.66687496   417608 
  640000   0.59528659    -2.762225    -2.762225   -2.0961405  0.029140133    -2.762225   0.66608446   417554 
  650000   0.59686542   -2.7639072   -2.7639072   -2.0959697  0.033947795   -2.7639072   0.66793744   417500 
  660000   0.59526041    -2.762038    -2.762038   -2.0958106  0.025788655    -2.762038   0.66622748   417446 
  670000   0.59528704   -2.7628648   -2.7628648   -2.0965213  0.031146303   -2.7628648   0.66634348   417392 
  680000   0.59647295   -2.7640176   -2.7640176   -2.0962602  0.024020323   -2.7640176   0.66775734   417338 
  690000   0.59446159   -2.7627125   -2.7627125   -2.0971208   0.03091819   -2.7627125   0.66559172   417284 
  700000   0.59522726   -2.7642052   -2.7642052   -2.0976699  0.029567151   -2.7642052   0.66653526   417230 
  710000   0.59462008   -2.7639567   -2.7639567   -2.0980151  0.023910606   -2.7639567   0.66594154   417176 
  720000   0.59422554   -2.7641816   -2.7641816   -2.0985958   0.03340772   -2.7641816   0.66558582   417122 
  730000   0.59422764   -2.7635549   -2.7635549   -2.0978806  0.031323559   -2.7635549   0.66567435   417068 
  740000   0.59439071   -2.7650826   -2.7650826   -2.0991378  0.029073972   -2.7650826   0.66594485   417013 
  750000   0.59485613   -2.7661097   -2.7661097   -2.0995571  0.027581212   -2.7661097   0.66655261   416959 
  760000   0.59333222   -2.7661092   -2.7661092    -2.101178  0.019630192   -2.7661092   0.66493114   416905 
  770000   0.59342901   -2.7659094   -2.7659094   -2.1007836  0.030528118   -2.7659094   0.66512576   416851 
  780000   0.59489791   -2.7672099   -2.7672099   -2.1003513   0.04123312   -2.7672099   0.66685853   416797 
  790000   0.59387829   -2.7660684   -2.7660684   -2.1002666  0.028530747   -2.7660684   0.66580183   416743 
  800000   0.59416628   -2.7674019   -2.7674019   -2.1011909  0.025469284   -2.7674019   0.66621102   416689 
  810000   0.59417923   -2.7680212   -2.7680212   -2.1017093  0.024074685   -2.7680212   0.66631189   416635 
  820000    0.5923286   -2.7662022   -2.7662022   -2.1018795  0.038048526   -2.7662022    0.6643227   416581 
  830000   0.59272657   -2.7656501   -2.7656501   -2.1007948  0.024129261   -2.7656501   0.66485523   416527 
  840000   0.59327895   -2.7666062   -2.7666062   -2.1010451  0.037205435   -2.7666062    0.6655611   416473 
  850000   0.59326039   -2.7669788   -2.7669788   -2.1013522  0.033374344   -2.7669788   0.66562659   416419 
  860000   0.59074807   -2.7648359   -2.7648359   -2.1019421  0.033368624   -2.7648359   0.66289378   416365 
  870000   0.59171866   -2.7669827   -2.7669827   -2.1029136   0.03316882   -2.7669827   0.66406903   416311 
  880000    0.5915644   -2.7681979   -2.7681979   -2.1042159  0.035176309   -2.7681979   0.66398203   416257 
  890000   0.59180247   -2.7678018   -2.7678018   -2.1034664   0.01939529   -2.7678018   0.66433543   416203 
  900000   0.59218742   -2.7684919   -2.7684919   -2.1036381    0.0328755   -2.7684919   0.66485382   416149 
  910000   0.59215119   -2.7689568   -2.7689568   -2.1040574  0.024767729   -2.7689568   0.66489942   416095 
  920000   0.59293957   -2.7690037   -2.7690037   -2.1031326  0.034670553   -2.7690037   0.66587107   416041 
  930000    0.5922005   -2.7687041   -2.7687041   -2.1035751  0.030905226   -2.7687041   0.66512903   415986 
  940000   0.59145727    -2.769458    -2.769458   -2.1050774  0.025739003    -2.769458   0.66438052   415932 
  950000   0.59161166   -2.7690578   -2.7690578   -2.1044176  0.046029998   -2.7690578   0.66464024   415878 
  960000   0.59089133   -2.7687003   -2.7687003   -2.1047831  0.024116247   -2.7687003   0.66391719   415824 
  970000   0.59203983   -2.7703954   -2.7703954   -2.1051014   0.03980188   -2.7703954   0.66529403   415770 
  980000   0.59017061   -2.7685664   -2.7685664   -2.1052867  0.021055477   -2.7685664   0.66327967   415716 
  990000   0.58985829   -2.7696878   -2.7696878    -2.106673  0.036344492   -2.7696878   0.66301479   415662 
 1000000    0.5902085   -2.7697952   -2.7697952   -2.1063006  0.032889591   -2.7697952   0.66349462   415608 
 1010000   0.59023621   -2.7712674   -2.7712674   -2.1076554  0.040564044   -2.7712674     0.663612   415554 
 1020000   0.59022195   -2.7689808   -2.7689808   -2.1052986  0.026470584   -2.7689808   0.66368221   415500 
 1030000   0.59192763   -2.7708105   -2.7708105   -2.1051238    0.0312922   -2.7708105   0.66568669   415446 
 1040000   0.59082941   -2.7703732   -2.7703732   -2.1058352  0.015691693   -2.7703732   0.66453801   415392 
 1050000   0.59031334   -2.7700598   -2.7700598    -2.106016  0.032275363   -2.7700598   0.66404388   415338 
 1060000   0.59053772    -2.769896    -2.769896   -2.1055133  0.037538939    -2.769896   0.66438266   415284 
 1070000   0.59044252   -2.7710574   -2.7710574   -2.1066954  0.030327092   -2.7710574   0.66436195   415230 
 1080000     0.588927   -2.7695552   -2.7695552   -2.1068123  0.034880273   -2.7695552   0.66274288   415176 
 1090000    0.5912581   -2.7723553   -2.7723553   -2.1069026  0.036623009   -2.7723553   0.66545271   415122 
 1100000   0.58923142   -2.7729351   -2.7729351   -2.1096771  0.024560748   -2.7729351     0.663258   415068 
 1110000   0.58968366   -2.7716347   -2.7716347   -2.1077797   0.02285202   -2.7716347   0.66385501   415013 
 1120000   0.58858542   -2.7709146   -2.7709146   -2.1082097  0.037819684   -2.7709146   0.66270487   414959 
 1130000   0.59013141   -2.7708919   -2.7708919   -2.1063599  0.032591119   -2.7708919   0.66453202   414905 
 1140000   0.59062229   -2.7723656   -2.7723656   -2.1071942  0.045439226   -2.7723656   0.66517136   414851 
 1150000   0.58985898   -2.7706547   -2.7706547   -2.1062565  0.034160783   -2.7706547   0.66439818   414797 
 1160000   0.58943504   -2.7719266   -2.7719266   -2.1079195  0.027499454   -2.7719266   0.66400712   414743 
 1170000   0.59048389   -2.7738503   -2.7738503   -2.1085751  0.018156821   -2.7738503   0.66527528   414689 
 1180000   0.58986666   -2.7734423   -2.7734423   -2.1087759  0.039386069   -2.7734423   0.66466643   414635 
 1190000   0.59012523   -2.7739076   -2.7739076   -2.1088632  0.025938474   -2.7739076   0.66504439   414581 
 1200000   0.59064629   -2.7760504   -2.7760504   -2.1103321  0.033530089   -2.7760504   0.66571832   414527 
 1210000   0.58827941   -2.7718217   -2.7718217   -2.1086847  0.039841675   -2.7718217   0.66313699   414473 
 1220000   0.58847254   -2.7722438   -2.7722438   -2.1088027  0.041568325   -2.7722438   0.66344113   414419 
 1230000   0.58905988   -2.7732349   -2.7732349   -2.1090451   0.03403598   -2.7732349   0.66418984   414365 
 1240000   0.58754781   -2.7735066   -2.7735066   -2.1109354  0.024278491   -2.7735066   0.66257127   414311 
 1250000   0.58942073   -2.7746765   -2.7746765   -2.1099066  0.040439075   -2.7746765   0.66476998   414257 
 1260000   0.58784989   -2.7732116   -2.7732116   -2.1101268  0.027725777   -2.7732116   0.66308476   414203 
 1270000   0.58736521   -2.7730102   -2.7730102   -2.1103857  0.035806344   -2.7730102   0.66262444   414149 
 1280000    0.5883412   -2.7745205   -2.7745205   -2.1107085  0.028687424   -2.7745205   0.66381203   414095 
 1290000   0.58936522    -2.774425    -2.774425   -2.1093708  0.026437078    -2.774425   0.66505414   414041 
 1300000   0.58763284   -2.7747022   -2.7747022   -2.1115149  0.023291048   -2.7747022   0.66318738   413986 
 1310000   0.58814845   -2.7744861   -2.7744861   -2.1106302  0.025241312   -2.7744861   0.66385588   413932 
 1320000   0.58734324   -2.7733196   -2.7733196    -2.110286  0.031127485   -2.7733196   0.66303352   413878 
 1330000   0.58842195   -2.7743403   -2.7743403   -2.1100024  0.033316531   -2.7743403   0.66433791   413824 
 1340000   0.58564473   -2.7732632   -2.7732632   -2.1119746  0.033824435   -2.7732632   0.66128868   413770 
 1350000   0.58747424   -2.7751902   -2.7751902   -2.1117492  0.041012524   -2.7751902   0.66344108   413716 
 1360000   0.58788157   -2.7743293   -2.7743293   -2.1103415  0.033522911   -2.7743293   0.66398775   413662 
 1370000   0.58685708   -2.7747154   -2.7747154   -2.1117982  0.038114561   -2.7747154   0.66291716   413608 
 1380000   0.58757487   -2.7756843   -2.7756843   -2.1118696   0.02656462   -2.7756843   0.66381465   413554 
 1390000   0.58770585   -2.7769987   -2.7769987   -2.1129493   0.03098054   -2.7769987   0.66404934   413500 
 1400000   0.58608543   -2.7773314   -2.7773314   -2.1150265  0.035127247   -2.7773314   0.66230492   413446 
 1410000   0.58539789   -2.7766417   -2.7766417   -2.1150273  0.028257683   -2.7766417   0.66161437   413392 
 1420000   0.58542574    -2.777805    -2.777805   -2.1160727   0.03729071    -2.777805   0.66173229   413338 
 1430000   0.58578402   -2.7774656   -2.7774656   -2.1152418  0.032857769   -2.7774656   0.66222379   413284 
 1440000   0.58626132   -2.7775844   -2.7775844   -2.1147344  0.030644563   -2.7775844   0.66284997   413230 
 1450000   0.58640644   -2.7785105   -2.7785105   -2.1154098  0.028695759   -2.7785105   0.66310071   413176 
 1460000    0.5855608   -2.7777171   -2.7777171    -2.115486 0.0065624599   -2.7777171   0.66223102   413122 
 1470000   0.58477498   -2.7779341   -2.7779341   -2.1165054   0.03351001   -2.7779341   0.66142877   413068 
 1480000   0.58635767   -2.7797775   -2.7797775   -2.1164703  0.025783464   -2.7797775   0.66330724   413013 
 1490000    0.5858036   -2.7773811   -2.7773811    -2.114614  0.025095306   -2.7773811   0.66276711   412959 
 1500000   0.58611695   -2.7773813   -2.7773813   -2.1141729  0.020942236   -2.7773813   0.66320835   412905 
 1510000   0.58506671   -2.7775939   -2.7775939   -2.1154873  0.027691702   -2.7775939   0.66210656   412851 
 1520000   0.58538401   -2.7779486   -2.7779486   -2.1153963  0.039821027   -2.7779486    0.6625523   412797 
 1530000   0.58619383   -2.7785826   -2.7785826   -2.1150269  0.019628371   -2.7785826   0.66355569   412743 
 1540000   0.58627084    -2.778866    -2.778866   -2.1151363  0.039515552    -2.778866   0.66372969   412689 
 1550000   0.58427925   -2.7783602   -2.7783602   -2.1167986  0.038570079   -2.7783602   0.66156154   412635 
 1560000   0.58341464   -2.7766844   -2.7766844   -2.1160154  0.039616512   -2.7766844   0.66066903   412581 
 1570000   0.58362494   -2.7773752   -2.7773752   -2.1163815  0.026463378   -2.7773752   0.66099369   412527 
 1580000   0.58414309   -2.7768568   -2.7768568   -2.1151897  0.033283572   -2.7768568   0.66166714   412473 
 1590000   0.58468446   -2.7784652   -2.7784652   -2.1160981  0.025071198   -2.7784652   0.66236707   412419 
 1600000   0.58433039   -2.7788417   -2.7788417   -2.1167891  0.025853681   -2.7788417   0.66205265   412365 
 1610000   0.58424832    -2.777742    -2.777742   -2.1156957   0.02832877    -2.777742   0.66204635   412311 
 1620000   0.58308927   -2.7780483   -2.7780483   -2.1172287  0.034512964   -2.7780483   0.66081952   412257 
 1630000   0.58390845   -2.7788942   -2.7788942   -2.1170596  0.028288185   -2.7788942   0.66183458   412203 
 1640000   0.58338096   -2.7781336   -2.7781336   -2.1168103  0.023956904   -2.7781336   0.66132334   412149 
 1650000   0.58271297    -2.774538    -2.774538   -2.1138853  0.025869796    -2.774538   0.66065266   412095 
 1660000   0.58370621   -2.7775434   -2.7775434   -2.1156779  0.025839242   -2.7775434   0.66186548   412041 
 1670000   0.58252601   -2.7783514   -2.7783514    -2.117736   0.03847652   -2.7783514   0.66061543   411986 
 1680000   0.58286953   -2.7784091   -2.7784091   -2.1173175  0.031383721   -2.7784091   0.66109165   411932 
 1690000   0.58221067   -2.7775382   -2.7775382   -2.1171073  0.039311612   -2.7775382   0.66043094   411878 
 1700000   0.58343224   -2.7785768   -2.7785768   -2.1166734   0.02858981   -2.7785768   0.66190341   411824 
 1710000   0.58193765   -2.7770252   -2.7770252   -2.1167309    0.0196779   -2.7770252   0.66029438   411770 
 1720000   0.58214338   -2.7784842   -2.7784842   -2.1178698   0.03660859   -2.7784842   0.66061444   411716 
 1730000   0.58310799   -2.7821673   -2.7821673   -2.1203714    0.0194886   -2.7821673   0.66179588   411662 
 1740000   0.58301609   -2.7823784   -2.7823784      -2.1206  0.027332851   -2.7823784   0.66177838   411608 
 1750000   0.58248317   -2.7808596   -2.7808596   -2.1195994  0.038768351   -2.7808596   0.66126023   411554 
 1760000   0.58133086   -2.7791788   -2.7791788   -2.1191401  0.026513939   -2.7791788   0.66003868   411500 
 1770000   0.58307088   -2.7802913   -2.7802913   -2.1181901  0.036010001   -2.7802913   0.66210117   411446 
 1780000   0.58277255   -2.7794681   -2.7794681   -2.1176188  0.031708928   -2.7794681   0.66184927   411392 
 1790000   0.58106679   -2.7772213   -2.7772213   -2.1172226  0.031991762   -2.7772213   0.65999869   411338 
 1800000   0.58186154   -2.7787859   -2.7787859   -2.1177977  0.026965635   -2.7787859   0.66098817   411284 
 1810000   0.58099302   -2.7785812   -2.7785812    -2.118493  0.042150012   -2.7785812   0.66008821   411230 
 1820000    0.5818828   -2.7801446   -2.7801446   -2.1189587  0.030100334   -2.7801446   0.66118595   411176 
 1830000   0.58168325   -2.7798855   -2.7798855   -2.1188395  0.031001401   -2.7798855   0.66104601   411122 
 1840000   0.58188417   -2.7809646   -2.7809646   -2.1196034  0.042726313   -2.7809646   0.66136121   411068 
 1850000    0.5814991   -2.7807131   -2.7807131   -2.1197011  0.035765098   -2.7807131   0.66101199   411013 
 1860000   0.58183676   -2.7817739   -2.7817739   -2.1202912  0.029944198   -2.7817739   0.66148272   410959 
 1870000    0.5817116   -2.7825895   -2.7825895   -2.1211621  0.038989019   -2.7825895   0.66142735   410905 
 1880000   0.58172856   -2.7826157   -2.7826157   -2.1210822  0.035609785   -2.7826157   0.66153356   410851 
 1890000   0.58157545   -2.7820229   -2.7820229   -2.1205765  0.023337037   -2.7820229   0.66144639   410797 
 1900000    0.5816668   -2.7828747   -2.7828747   -2.1212374  0.028478496   -2.7828747   0.66163726   410743 
 1910000   0.58001349   -2.7817438   -2.7817438   -2.1219004  0.027483145   -2.7817438   0.65984339   410689 
 1920000    0.5810294   -2.7838262   -2.7838262   -2.1227402  0.034970023   -2.7838262   0.66108605   410635 
 1930000   0.58035163   -2.7810486   -2.7810486   -2.1206469  0.023986394   -2.7810486   0.66040174   410581 
 1940000   0.58075141   -2.7821725   -2.7821725   -2.1212289  0.032475075   -2.7821725   0.66094359   410527 
 1950000    0.5806085   -2.7819145   -2.7819145   -2.1210466  0.035693343   -2.7819145   0.66086788   410473 
 1960000   0.58002243   -2.7827524   -2.7827524   -2.1224647  0.042723333   -2.7827524   0.66028766   410419 
 1970000   0.57958004   -2.7826034   -2.7826034   -2.1227326  0.035355599   -2.7826034   0.65987086   410365 
 1980000   0.57918156   -2.7831246   -2.7831246   -2.1236206   0.03860137   -2.7831246   0.65950397   410311 
 1990000   0.58056175    -2.784606    -2.784606   -2.1234434  0.019904964    -2.784606   0.66116258   410257 
 2000000   0.57944944   -2.7837609   -2.7837609   -2.1237781  0.031764842   -2.7837609   0.65998272   410203 
 2010000   0.58121021   -2.7852913   -2.7852913    -2.123216  0.031231588   -2.7852913   0.66207536   410149 
 2020000   0.57870645   -2.7838492   -2.7838492   -2.1245392  0.035757666   -2.7838492   0.65931006   410095 
 2030000   0.58078297    -2.785658    -2.785658    -2.123895  0.038057335    -2.785658   0.66176294   410041 
 2040000   0.58013488   -2.7850164   -2.7850164   -2.1239032  0.024021763   -2.7850164   0.66111315   409986 
 2050000   0.57924892   -2.7847513   -2.7847513   -2.1245608  0.030714203   -2.7847513   0.66019049   409932 
 2060000   0.57934192   -2.7859639   -2.7859639   -2.1255805  0.035344938   -2.7859639   0.66038346   409878 
 2070000   0.57867974   -2.7870681   -2.7870681   -2.1273526  0.035922635   -2.7870681   0.65971558   409824 
 2080000   0.57810665   -2.7853903   -2.7853903   -2.1262412  0.027004543   -2.7853903   0.65914908   409770 
 2090000   0.57995818   -2.7863034   -2.7863034   -2.1249561  0.025150228   -2.7863034   0.66134733   409716 
 2100000   0.57914856   -2.7873626   -2.7873626   -2.1268514  0.028224038   -2.7873626   0.66051114   409662 
 2110000   0.57903135    -2.787607    -2.787607   -2.1271425  0.033945352    -2.787607   0.66046452   409608 
 2120000     0.580091   -2.7881308   -2.7881308   -2.1263703   0.02898336   -2.7881308   0.66176044   409554 
 2130000   0.57762748   -2.7845951   -2.7845951   -2.1255581  0.030107032   -2.7845951   0.65903698   409500 
 2140000   0.57848181   -2.7862604   -2.7862604   -2.1261616  0.030840609   -2.7862604   0.66009876   409446 
 2150000   0.57897414   -2.7875147   -2.7875147    -2.126767  0.029965905   -2.7875147    0.6607477   409392 
 2160000   0.57746717   -2.7870489   -2.7870489   -2.1279341  0.037357591   -2.7870489   0.65911483   409338 
 2170000   0.57783037   -2.7858944   -2.7858944    -2.126278  0.012237641   -2.7858944    0.6596164   409284 
 2180000   0.57716962   -2.7843166   -2.7843166   -2.1253675  0.035155246   -2.7843166   0.65894906   409230 
 2190000   0.57809899   -2.7870555   -2.7870555   -2.1269583  0.025654846   -2.7870555   0.66009722   409176 
 2200000    0.5777311   -2.7857806   -2.7857806   -2.1260164  0.028268009   -2.7857806   0.65976422   409122 
 2210000   0.57831089   -2.7863817   -2.7863817   -2.1258682   0.03586583   -2.7863817   0.66051352   409068 
 2220000   0.57894895   -2.7882476   -2.7882476   -2.1269164  0.025132726   -2.7882476   0.66133119   409013 
 2230000    0.5764618   -2.7866308   -2.7866308   -2.1280538  0.035454968   -2.7866308   0.65857707   408959 
 2240000   0.57705332   -2.7854532   -2.7854532   -2.1261133   0.03693309   -2.7854532   0.65933992   408905 
 2250000   0.57762202   -2.7859815   -2.7859815   -2.1259047  0.034246783   -2.7859815   0.66007688   408851 
 2260000   0.57813293   -2.7876071   -2.7876071   -2.1268591  0.029389391   -2.7876071   0.66074799   408797 
 2270000   0.57738384   -2.7887693   -2.7887693   -2.1287903  0.032088268   -2.7887693   0.65997904   408743 
 2280000   0.57711999   -2.7878653   -2.7878653   -2.1281006  0.033525532   -2.7878653   0.65976461   408689 
 2290000   0.57724553   -2.7878165   -2.7878165   -2.1278212  0.028091801   -2.7878165   0.65999533   408635 
 2300000   0.57706293   -2.7868443   -2.7868443   -2.1269705  0.031220154   -2.7868443   0.65987376   408581 
 2310000    0.5761936   -2.7872519   -2.7872519   -2.1282851  0.037572788   -2.7872519   0.65896676   408527 
 2320000   0.57607711   -2.7862477   -2.7862477   -2.1273271  0.024730299   -2.7862477   0.65892064   408473 
 2330000    0.5762359   -2.7871974   -2.7871974    -2.128008  0.023230774   -2.7871974   0.65918942   408419 
 2340000   0.57684516   -2.7879472   -2.7879472   -2.1279736  0.024122689   -2.7879472   0.65997364   408365 
 2350000   0.57412096   -2.7870892   -2.7870892   -2.1301454  0.029591535   -2.7870892   0.65694373   408311 
 2360000   0.57459007   -2.7882789   -2.7882789   -2.1307114  0.024932804   -2.7882789   0.65756747   408257 
 2370000   0.57604708   -2.7880579   -2.7880579   -2.1287358  0.028067243   -2.7880579    0.6593221   408203 
 2380000   0.57415957   -2.7870704   -2.7870704   -2.1298218  0.028765904   -2.7870704   0.65724867   408149 
 2390000   0.57590986    -2.789849    -2.789849   -2.1305095  0.037126694    -2.789849   0.65933949   408095 
 2400000   0.57558691   -2.7879149   -2.7879149   -2.1288579  0.024048333   -2.7879149   0.65905696   408041 
 2410000   0.57454477   -2.7854211   -2.7854211   -2.1274687  0.031491957   -2.7854211   0.65795238   407986 
 2420000    0.5753698   -2.7885216   -2.7885216   -2.1295372  0.035813414   -2.7885216    0.6589844   407932 
 2430000   0.57491775    -2.787458    -2.787458   -2.1289042  0.014291466    -2.787458   0.65855384   407878 
 2440000   0.57464323   -2.7871314   -2.7871314   -2.1288048  0.029203285   -2.7871314   0.65832654   407824 
 2450000   0.57469653   -2.7869252   -2.7869252   -2.1284504  0.029099153   -2.7869252   0.65847479   407770 
 2460000   0.57368578   -2.7855113   -2.7855113   -2.1281075   0.02535702   -2.7855113   0.65740375   407716 
 2470000   0.57395838   -2.7865591   -2.7865591   -2.1287558  0.028553068   -2.7865591   0.65780326   407662 
 2480000   0.57206966   -2.7840527   -2.7840527   -2.1283273  0.036975669   -2.7840527   0.65572548   407608 
 2490000   0.57416054   -2.7859687   -2.7859687   -2.1277594  0.029831788   -2.7859687   0.65820933   407554 
 2500000   0.57243696   -2.7843036   -2.7843036   -2.1279832  0.026725123   -2.7843036    0.6563204   407500 
 2510000   0.57415766   -2.7857999   -2.7857999   -2.1274194  0.021450614   -2.7857999   0.65838049   407446 
 2520000   0.57321336   -2.7841036   -2.7841036   -2.1267188  0.025309363   -2.7841036    0.6573848   407392 
 2530000   0.57367722   -2.7859673   -2.7859673   -2.1279634  0.021743474   -2.7859673   0.65800399   407338 
 2540000    0.5731635   -2.7849332   -2.7849332   -2.1274312  0.027421663   -2.7849332   0.65750192   407284 
 2550000   0.57170957   -2.7844659   -2.7844659   -2.1285449  0.019486883   -2.7844659   0.65592101   407230 
 2560000   0.57238137   -2.7865754   -2.7865754   -2.1297965  0.025476997   -2.7865754   0.65677886   407176 
 2570000   0.57277847   -2.7859118   -2.7859118   -2.1285902  0.030563082   -2.7859118   0.65732168   407122 
 2580000   0.57171005   -2.7866708   -2.7866708   -2.1304882  0.032470123   -2.7866708    0.6561826   407068 
 2590000    0.5729961   -2.7871668   -2.7871668   -2.1294193  0.024674037   -2.7871668   0.65774754   407013 
 2600000   0.57066521   -2.7847818   -2.7847818    -2.129623  0.032828307   -2.7847818   0.65515881   406959 
 2610000   0.57383611   -2.7877578   -2.7877578   -2.1288712  0.032511994   -2.7877578   0.65888662   406905 
 2620000   0.57170061   -2.7878744   -2.7878744   -2.1313526  0.022670499   -2.7878744   0.65652175   406851 
 2630000   0.57147479   -2.7870816   -2.7870816   -2.1307321  0.034618066   -2.7870816   0.65634954   406797 
 2640000   0.57270955   -2.7889193   -2.7889193   -2.1310642  0.033831157   -2.7889193   0.65785501   406743 
 2650000   0.57148931   -2.7891225   -2.7891225   -2.1325819  0.027263161   -2.7891225   0.65654052   406689 
 2660000   0.57229419   -2.7892644   -2.7892644   -2.1317119  0.025905711   -2.7892644   0.65755249   406635 
 2670000    0.5722796   -2.7888681   -2.7888681    -2.131245  0.026175327   -2.7888681   0.65762306   406581 
 2680000   0.57041257   -2.7862682   -2.7862682   -2.1307035  0.033056266   -2.7862682   0.65556467   406527 
 2690000   0.57199939   -2.7888203   -2.7888203   -2.1313446  0.033581345   -2.7888203    0.6574757   406473 
 2700000   0.57008802   -2.7864127   -2.7864127    -2.131047  0.033362727   -2.7864127   0.65536578   406419 
 2710000   0.57139635   -2.7885985   -2.7885985   -2.1316414  0.026038717   -2.7885985    0.6569571   406365 
 2720000   0.57129077   -2.7877987   -2.7877987   -2.1308757  0.024609045   -2.7877987   0.65692301   406311 
 2730000    0.5713062   -2.7896533   -2.7896533   -2.1326253  0.032667361   -2.7896533   0.65702808   406257 
 2740000   0.57125986   -2.7901857   -2.7901857   -2.1331236  0.030834442   -2.7901857   0.65706212   406203 
 2750000   0.57109344   -2.7893886   -2.7893886   -2.1324306  0.026647202   -2.7893886   0.65695804   406149 
 2760000   0.56971176   -2.7868783   -2.7868783   -2.1314225  0.027381078   -2.7868783   0.65545576   406095 
 2770000   0.57133838   -2.7889219   -2.7889219   -2.1315073  0.037458974   -2.7889219   0.65741462   406041 
 2780000   0.57115268   -2.7890483   -2.7890483   -2.1317583  0.045212816   -2.7890483   0.65728998   405986 
 2790000   0.57021382   -2.7867789   -2.7867789    -2.130482  0.023308211   -2.7867789   0.65629681   405932 
 2800000     0.570621   -2.7877464   -2.7877464   -2.1308935  0.021469667   -2.7877464   0.65685285   405878 
 2810000   0.57164722   -2.7868429   -2.7868429   -2.1287211  0.032830519   -2.7868429   0.65812171   405824 
 2820000   0.57138297   -2.7863722   -2.7863722   -2.1284672  0.032780751   -2.7863722   0.65790503   405770 
 2830000   0.57037558   -2.7876267   -2.7876267   -2.1307942  0.040730192   -2.7876267    0.6568325   405716 
 2840000   0.57030152   -2.7866202   -2.7866202   -2.1297856  0.030262422   -2.7866202   0.65683464   405662 
 2850000   0.57007221   -2.7861199   -2.7861199   -2.1294619  0.031438929   -2.7861199   0.65665795   405608 
 2860000   0.57189615    -2.788147    -2.788147   -2.1293004  0.042576399    -2.788147   0.65884663   405554 
 2870000   0.56868763   -2.7855268   -2.7855268   -2.1302893  0.033532052   -2.7855268   0.65523754   405500 
 2880000   0.56917465   -2.7858988   -2.7858988   -2.1300127  0.035951987   -2.7858988   0.65588602   405446 
 2890000   0.56943298   -2.7849305   -2.7849305   -2.1286594  0.033311594   -2.7849305   0.65627112   405392 
 2900000   0.56991575   -2.7857491   -2.7857491   -2.1288341   0.03232654   -2.7857491   0.65691501   405338 
 2910000   0.56997411   -2.7876827   -2.7876827   -2.1306128  0.033040325   -2.7876827   0.65706982   405284 
 2920000    0.5683659    -2.786409    -2.786409   -2.1311058  0.030729082    -2.786409   0.65530318   405230 
 2930000   0.56889681   -2.7868597   -2.7868597    -2.130857  0.030820043   -2.7868597   0.65600271   405176 
 2940000   0.56880028   -2.7878302   -2.7878302   -2.1318514  0.037620403   -2.7878302   0.65597883   405122 
 2950000   0.57008609   -2.7880888   -2.7880888   -2.1305395  0.039574943   -2.7880888   0.65754936   405068 
 2960000   0.56922595   -2.7890438   -2.7890438   -2.1323974  0.037860981   -2.7890438   0.65664641   405013 
 2970000   0.57029365   -2.7895483   -2.7895483   -2.1315825  0.030239061   -2.7895483   0.65796581   404959 
 2980000   0.56848872   -2.7893561   -2.7893561   -2.1333852  0.018634987   -2.7893561   0.65597088   404905 
 2990000   0.56960371   -2.7901479   -2.7901479   -2.1328027  0.036954723   -2.7901479   0.65734512   404851 
 3000000    0.5684604    -2.787993    -2.787993   -2.1318798  0.034088907    -2.787993   0.65611321   404797 
 3010000   0.56777372   -2.7871414   -2.7871414   -2.1317333   0.02227733   -2.7871414   0.65540808   404743 
 3020000   0.56877932   -2.7893486   -2.7893486   -2.1326921  0.035307901   -2.7893486   0.65665649   404689 
 3030000   0.56834391   -2.7880047   -2.7880047   -2.1317634   0.02675467   -2.7880047   0.65624138   404635 
 3040000   0.56692896   -2.7885858   -2.7885858   -2.1338908  0.036663289   -2.7885858   0.65469497   404581 
 3050000     0.568592   -2.7884616   -2.7884616   -2.1317585  0.040820693   -2.7884616   0.65670312   404527 
 3060000   0.56787168   -2.7878241   -2.7878241   -2.1318654   0.03699316   -2.7878241   0.65595874   404473 
 3070000   0.56918887   -2.7901743   -2.7901743   -2.1326062  0.036289157   -2.7901743   0.65756804   404419 
 3080000   0.56638315   -2.7879407   -2.7879407   -2.1335266  0.028515515   -2.7879407   0.65441405   404365 
 3090000   0.56735273   -2.7888513   -2.7888513   -2.1332294  0.035055548   -2.7888513   0.65562188   404311 
 3100000   0.56784159   -2.7890296   -2.7890296   -2.1327551   0.02265851   -2.7890296   0.65627445   404257 
 3110000   0.56774488   -2.7898081   -2.7898081   -2.1335577  0.023132926   -2.7898081   0.65625034   404203 
 3120000   0.56679121    -2.789383    -2.789383   -2.1341474  0.029304173    -2.789383   0.65523554   404149 
 3130000   0.56784797   -2.7904233   -2.7904233   -2.1338784   0.02898587   -2.7904233   0.65654492   404095 
 3140000   0.56837269   -2.7904278   -2.7904278   -2.1331884  0.030490407   -2.7904278   0.65723943   404041 
 3150000   0.56619199   -2.7869844   -2.7869844   -2.1321775  0.034118168   -2.7869844   0.65480691   403986 
 3160000   0.56683601   -2.7881753   -2.7881753   -2.1325359   0.03229894   -2.7881753   0.65563937   403932 
 3170000   0.56616539   -2.7878237   -2.7878237   -2.1328724  0.032920491   -2.7878237   0.65495124   403878 
 3180000   0.56716802   -2.7880471   -2.7880471   -2.1318482  0.025575076   -2.7880471   0.65619884   403824 
 3190000   0.56595923   -2.7862191   -2.7862191   -2.1313312  0.024412205   -2.7862191   0.65488787   403770 
 3200000   0.56748416    -2.789231    -2.789231   -2.1324908  0.030166577    -2.789231   0.65674024   403716 
 3210000   0.56779839   -2.7895267   -2.7895267   -2.1323349  0.023341973   -2.7895267    0.6571918   403662 
 3220000   0.56652845    -2.788641    -2.788641   -2.1328314  0.030746665    -2.788641   0.65580966   403608 
 3230000   0.56631157    -2.787887    -2.787887   -2.1322407  0.026574035    -2.787887   0.65564632   403554 
 3240000    0.5659017   -2.7874405   -2.7874405    -2.132181  0.027977194   -2.7874405   0.65525947   403500 
 3250000   0.56714257   -2.7898792   -2.7898792   -2.1330951  0.043513619   -2.7898792   0.65678417   403446 
 3260000   0.56636712   -2.7882565   -2.7882565   -2.1322825  0.026576437   -2.7882565   0.65597396   403392 
 3270000   0.56710581   -2.7894682   -2.7894682   -2.1325508  0.030412825   -2.7894682   0.65691746   403338 
 3280000   0.56571226   -2.7884295   -2.7884295   -2.1330385  0.031501912   -2.7884295   0.65539096   403284 
 3290000   0.56670177   -2.7910546   -2.7910546   -2.1344294  0.015911897   -2.7910546   0.65662525   403230 
 3300000    0.5650828   -2.7894907   -2.7894907   -2.1346536   0.03273027   -2.7894907   0.65483708   403176 
 3310000   0.56340556   -2.7855605   -2.7855605   -2.1325796   0.02688558   -2.7855605   0.65298089   403122 
 3320000   0.56473495   -2.7874258   -2.7874258   -2.1328165  0.032007761   -2.7874258   0.65460933   403068 
 3330000   0.56577537   -2.7902467   -2.7902467   -2.1343418  0.028406428   -2.7902467   0.65590484   403013 
 3340000   0.56510859   -2.7882171   -2.7882171   -2.1329975  0.031272226   -2.7882171   0.65521962   402959 
 3350000   0.56397796   -2.7876616   -2.7876616   -2.1336652  0.032342217   -2.7876616   0.65399635   402905 
 3360000   0.56494755   -2.7894553   -2.7894553   -2.1342468  0.023630225   -2.7894553   0.65520852   402851 
 3370000   0.56361894   -2.7876962   -2.7876962    -2.133941  0.022178075   -2.7876962   0.65375527   402797 
 3380000   0.56410622   -2.7882303   -2.7882303   -2.1338221  0.037270417   -2.7882303   0.65440821   402743 
 3390000   0.56258698   -2.7886782   -2.7886782   -2.1359449  0.022110676   -2.7886782   0.65273328   402689 
 3400000   0.56456442   -2.7892669   -2.7892669   -2.1341514  0.023980967   -2.7892669   0.65511543   402635 
 3410000   0.56498639   -2.7893956   -2.7893956   -2.1337026  0.025589716   -2.7893956   0.65569302   402581 
 3420000   0.56463474   -2.7883896   -2.7883896   -2.1330168  0.034321553   -2.7883896   0.65537282   402527 
 3430000   0.56400082   -2.7876106   -2.7876106   -2.1328857  0.033441519   -2.7876106   0.65472487   402473 
 3440000     0.563377   -2.7893146   -2.7893146   -2.1352261  0.037468109   -2.7893146   0.65408846   402419 
 3450000   0.56412543   -2.7898529   -2.7898529   -2.1348076   0.02767944   -2.7898529   0.65504529   402365 
 3460000   0.56378445    -2.790239    -2.790239   -2.1355018  0.020934342    -2.790239   0.65473723   402311 
 3470000   0.56414889   -2.7911552   -2.7911552   -2.1359068  0.012238019   -2.7911552   0.65524841   402257 
 3480000   0.56460065   -2.7904219   -2.7904219   -2.1345608  0.035051286   -2.7904219   0.65586117   402203 
 3490000   0.56267626   -2.7882467   -2.7882467   -2.1345332  0.023405404   -2.7882467   0.65371349   402149 
 3500000   0.56341614   -2.7876661   -2.7876661   -2.1330051   0.03360611   -2.7876661   0.65466098   402095 
 3510000   0.56411488   -2.7890841   -2.7890841   -2.1335232  0.022243148   -2.7890841   0.65556092   402041 
 3520000   0.56461417   -2.7902292   -2.7902292   -2.1339983  0.029244259   -2.7902292   0.65623092   401986 
 3530000   0.56422386   -2.7903889   -2.7903889   -2.1345235  0.017784324   -2.7903889   0.65586539   401932 
 3540000   0.56278802   -2.7887183   -2.7887183    -2.134434   0.03454856   -2.7887183   0.65428424   401878 
 3550000   0.56286494    -2.789374    -2.789374   -2.1349124  0.027668183    -2.789374   0.65446161   401824 
 3560000   0.56314164   -2.7882686   -2.7882686   -2.1333973  0.015901192   -2.7882686   0.65487134   401770 
 3570000   0.56245916   -2.7886839   -2.7886839   -2.1345183  0.031329049   -2.7886839   0.65416562   401716 
 3580000   0.56251722   -2.7896697   -2.7896697   -2.1353486   0.03305604   -2.7896697    0.6543211   401662 
 3590000   0.56240748   -2.7890022   -2.7890022   -2.1347208  0.031423625   -2.7890022   0.65428141   401608 
 3600000   0.56251339   -2.7876935   -2.7876935   -2.1332008  0.033169709   -2.7876935   0.65449263   401554 
 3610000   0.56363928   -2.7876177   -2.7876177   -2.1317269  0.030697765   -2.7876177   0.65589082   401500 
 3620000   0.56235234   -2.7877274   -2.7877274   -2.1332461  0.035785661   -2.7877274   0.65448127   401446 
 3630000   0.56190485   -2.7881917   -2.7881917   -2.1341432  0.034557356   -2.7881917   0.65404844   401392 
 3640000    0.5618049   -2.7883012   -2.7883012   -2.1342811  0.027422479   -2.7883012   0.65402009   401338 
 3650000   0.56052428   -2.7877416   -2.7877416   -2.1351245  0.021691252   -2.7877416   0.65261708   401284 
 3660000   0.56235979    -2.790224    -2.790224   -2.1353817  0.014102183    -2.790224   0.65484228   401230 
 3670000   0.56206865   -2.7887434   -2.7887434    -2.134152  0.028517552   -2.7887434   0.65459136   401176 
 3680000   0.56252856   -2.7916543   -2.7916543   -2.1364391  0.031924752   -2.7916543   0.65521517   401122 
 3690000   0.56042277   -2.7885836   -2.7885836   -2.1357333  0.030325397   -2.7885836   0.65285031   401068 
 3700000   0.56113115    -2.788268    -2.788268   -2.1345029  0.034245024    -2.788268   0.65376517   401013 
 3710000   0.56096217   -2.7887158   -2.7887158   -2.1350594  0.034427786   -2.7887158    0.6536563   400959 
 3720000   0.56199254   -2.7898703   -2.7898703   -2.1349252  0.020728521   -2.7898703   0.65494514   400905 
 3730000   0.56081158   -2.7889697   -2.7889697   -2.1353128  0.034036173   -2.7889697    0.6536569   400851 
 3740000   0.56147918    -2.790584    -2.790584   -2.1360608   0.02348868    -2.790584    0.6545232   400797 
 3750000   0.56054375   -2.7886907   -2.7886907   -2.1351699  0.025157475   -2.7886907    0.6535208   400743 
 3760000   0.56129051   -2.7900507   -2.7900507    -2.135571  0.039645671   -2.7900507   0.65447962   400689 
 3770000    0.5609871   -2.7894423   -2.7894423   -2.1352283   0.02666109   -2.7894423     0.654214   400635 
 3780000   0.56141944   -2.7891976   -2.7891976   -2.1343912  0.047146374   -2.7891976   0.65480645   400581 
 3790000   0.56104903    -2.790725    -2.790725   -2.1362624  0.025065975    -2.790725   0.65446265   400527 
 3800000   0.56031899   -2.7905088   -2.7905088   -2.1368096  0.031505234   -2.7905088   0.65369919   400473 
 3810000   0.55912329    -2.788298    -2.788298   -2.1359058  0.025402386    -2.788298    0.6523922   400419 
 3820000    0.5603456    -2.790303    -2.790303   -2.1363964  0.033120177    -2.790303   0.65390658   400365 
 3830000   0.56055227   -2.7899379   -2.7899379   -2.1357019  0.026599924   -2.7899379   0.65423601   400311 
 3840000   0.55987069   -2.7910145   -2.7910145   -2.1374858  0.038445644   -2.7910145   0.65352867   400257 
 3850000   0.55982643   -2.7912799   -2.7912799   -2.1377148  0.033475534   -2.7912799   0.65356518   400203 
 3860000   0.55744067   -2.7892456   -2.7892456   -2.1383778  0.017003993   -2.7892456   0.65086777   400149 
 3870000   0.56100773   -2.7919847   -2.7919847   -2.1368636  0.035135207   -2.7919847   0.65512108   400095 
 3880000   0.55978675   -2.7896864   -2.7896864   -2.1359029  0.027737067   -2.7896864   0.65378351   400041 
 3890000   0.55927468   -2.7907867   -2.7907867   -2.1375115  0.032117231   -2.7907867   0.65327527   399986 
 3900000   0.55831086   -2.7914951   -2.7914951   -2.1392576  0.037177644   -2.7914951   0.65223751   399932 
 3910000    0.5583444   -2.7912569   -2.7912569   -2.1388921  0.024494761   -2.7912569   0.65236477   399878 
 3920000   0.55838387   -2.7910912   -2.7910912   -2.1385922  0.025751866   -2.7910912     0.652499   399824 
 3930000   0.55836062   -2.7917187   -2.7917187   -2.1391587  0.019775793   -2.7917187   0.65255997   399770 
 3940000   0.55938599   -2.7927812   -2.7927812   -2.1389345  0.025629961   -2.7927812   0.65384664   399716 
 3950000   0.55858044   -2.7934151   -2.7934151   -2.1404218  0.027185164   -2.7934151   0.65299328   399662 
 3960000   0.55846936   -2.7931997   -2.7931997   -2.1402481  0.027219187   -2.7931997   0.65295165   399608 
 3970000   0.55767567   -2.7920405   -2.7920405   -2.1399287  0.026729629   -2.7920405    0.6521118   399554 
 3980000   0.55775507    -2.791575    -2.791575   -2.1392822  0.033887113    -2.791575   0.65229281   399500 
 3990000   0.55761882   -2.7920124   -2.7920124   -2.1397907  0.023706226   -2.7920124   0.65222163   399446 
 4000000   0.55784999   -2.7895239   -2.7895239   -2.1369437   0.02867985   -2.7895239   0.65258024   399392 
 4010000   0.55780404     -2.79056     -2.79056   -2.1379453  0.039923719     -2.79056   0.65261472   399338 
 4020000   0.55837577    -2.790935    -2.790935    -2.137563  0.031700524    -2.790935   0.65337198   399284 
 4030000   0.55861402   -2.7909881   -2.7909881    -2.137249  0.020528198   -2.7909881   0.65373917   399230 
 4040000   0.55840956   -2.7925323   -2.7925323    -2.138944  0.017275991   -2.7925323    0.6535883   399176 
 4050000   0.55776728   -2.7910493   -2.7910493   -2.1381244  0.030076715   -2.7910493   0.65292488   399122 
 4060000   0.55810346    -2.791156    -2.791156   -2.1377492  0.027981776    -2.791156   0.65340681   399068 
 4070000   0.55851562    -2.791448    -2.791448   -2.1374685   0.04196943    -2.791448   0.65397948   399013 
 4080000   0.55622596   -2.7900599   -2.7900599   -2.1386733  0.039015599   -2.7900599   0.65138662   398959 
 4090000   0.55669626    -2.789907    -2.789907   -2.1378813  0.013483387    -2.789907   0.65202564   398905 
 4100000   0.55646848   -2.7914193   -2.7914193   -2.1395722   0.02603261   -2.7914193   0.65184709   398851 
 4110000   0.55678788   -2.7905577   -2.7905577   -2.1382482  0.027765026   -2.7905577   0.65230956   398797 
 4120000   0.55748954    -2.793252    -2.793252   -2.1400319  0.031822613    -2.793252   0.65322004   398743 
 4130000   0.55656383   -2.7907184   -2.7907184   -2.1384947  0.041361326   -2.7907184    0.6522237   398689 
 4140000   0.55650403    -2.792517    -2.792517    -2.140275  0.034468817    -2.792517   0.65224195   398635 
 4150000   0.55461049   -2.7906114   -2.7906114   -2.1405006  0.035281651   -2.7906114   0.65011073   398581 
 4160000   0.55509629   -2.7920238   -2.7920238   -2.1412555  0.024775151   -2.7920238   0.65076835   398527 
 4170000   0.55532583   -2.7928387   -2.7928387    -2.141713  0.025341312   -2.7928387   0.65112568   398473 
 4180000   0.55716521   -2.7952918   -2.7952918   -2.1419209  0.028352929   -2.7952918   0.65337092   398419 
 4190000   0.55539647   -2.7930694   -2.7930694   -2.1416843   0.02324747   -2.7930694   0.65138506   398365 
 4200000   0.55509339   -2.7920118   -2.7920118    -2.140894  0.032684393   -2.7920118   0.65111785   398311 
 4210000   0.55499191   -2.7935532   -2.7935532   -2.1424661  0.022896948   -2.7935532   0.65108708   398257 
 4220000   0.55554655   -2.7934244   -2.7934244   -2.1415983  0.038457436   -2.7934244   0.65182614   398203 
 4230000   0.55611833   -2.7931223   -2.7931223   -2.1405368  0.037366898   -2.7931223   0.65258551   398149 
 4240000   0.55645466   -2.7936325   -2.7936325   -2.1405638  0.026342111   -2.7936325   0.65306876   398095 
 4250000   0.55464654   -2.7930899   -2.7930899   -2.1420549   0.02499857   -2.7930899   0.65103501   398041 
 4260000   0.55549999   -2.7929094   -2.7929094   -2.1407825  0.040556142   -2.7929094   0.65212689   397986 
 4270000   0.55410307   -2.7938408   -2.7938408   -2.1432656  0.030352829   -2.7938408   0.65057525   397932 
 4280000   0.55474641   -2.7938554   -2.7938554   -2.1424364  0.028940034   -2.7938554   0.65141901   397878 
 4290000   0.55539363   -2.7934442   -2.7934442   -2.1411767  0.029753275   -2.7934442   0.65226753   397824 
 4300000   0.55501369   -2.7932517   -2.7932517   -2.1413419   0.02190379   -2.7932517   0.65190981   397770 
 4310000   0.55437989   -2.7912501   -2.7912501   -2.1399963  0.026936082   -2.7912501   0.65125377   397716 
 4320000   0.55462024   -2.7927973   -2.7927973   -2.1411727  0.027738661   -2.7927973    0.6516246   397662 
 4330000   0.55467441   -2.7941675   -2.7941675   -2.1423908  0.029989553   -2.7941675   0.65177675   397608 
 4340000   0.55449083   -2.7933697   -2.7933697   -2.1417202  0.031617639   -2.7933697   0.65164954   397554 
 4350000   0.55538335   -2.7944273   -2.7944273   -2.1416402  0.028272476   -2.7944273   0.65278711   397500 
 4360000   0.55489505   -2.7939556   -2.7939556   -2.1416538  0.039853021   -2.7939556   0.65230178   397446 
 4370000   0.55351835   -2.7935647   -2.7935647   -2.1427928  0.034755183   -2.7935647   0.65077184   397392 
 4380000   0.55335949   -2.7947459   -2.7947459   -2.1440724  0.034410659   -2.7947459   0.65067349   397338 
 4390000   0.55376946   -2.7950807   -2.7950807   -2.1438366  0.026478286   -2.7950807   0.65124406   397284 
 4400000   0.55339293   -2.7935656   -2.7935656   -2.1426759  0.021395229   -2.7935656   0.65088973   397230 
 4410000   0.55245454   -2.7923112   -2.7923112   -2.1424368  0.024735811   -2.7923112   0.64987435   397176 
 4420000   0.55397735   -2.7950694   -2.7950694   -2.1433151  0.025632496   -2.7950694   0.65175431   397122 
 4430000   0.55497454   -2.7962214   -2.7962214   -2.1432051  0.027444166   -2.7962214   0.65301629   397068 
 4440000   0.55313552   -2.7943092   -2.7943092   -2.1433666   0.03614496   -2.7943092   0.65094256   397013 
 4450000   0.55283473    -2.792801    -2.792801   -2.1421239  0.021288233    -2.792801   0.65067708   396959 
 4460000   0.55478868   -2.7956192   -2.7956192   -2.1425535  0.032870273   -2.7956192   0.65306569   396905 
 4470000   0.55302741   -2.7939764   -2.7939764   -2.1428954  0.023926641   -2.7939764   0.65108101   396851 
 4480000   0.55456951   -2.7973772   -2.7973772   -2.1443918  0.039753061   -2.7973772   0.65298537   396797 
 4490000   0.55279652   -2.7948508   -2.7948508   -2.1438645  0.039687806   -2.7948508   0.65098633   396743 
 4500000   0.55423005   -2.7949463   -2.7949463   -2.1421829  0.039769333   -2.7949463   0.65276334   396689 
 4510000   0.55292572    -2.794002    -2.794002   -2.1426862  0.034845467    -2.794002   0.65131578   396635 
 4520000   0.55418159   -2.7954149   -2.7954149   -2.1425309  0.032848754   -2.7954149   0.65288401   396581 
 4530000   0.55310326   -2.7950539   -2.7950539   -2.1433516  0.029118565   -2.7950539   0.65170237   396527 
 4540000    0.5521439   -2.7947457   -2.7947457   -2.1440851  0.027335883   -2.7947457    0.6506606   396473 
 4550000   0.55114083   -2.7938207   -2.7938207   -2.1442537  0.024786962   -2.7938207   0.64956703   396419 
 4560000   0.55308473   -2.7948952   -2.7948952   -2.1429483  0.025980527   -2.7948952   0.65194689   396365 
 4570000   0.55247623   -2.7932343   -2.7932343   -2.1419159  0.036829754   -2.7932343   0.65131836   396311 
 4580000   0.55281724   -2.7947625   -2.7947625   -2.1429533   0.01692964   -2.7947625   0.65180919   396257 
 4590000   0.55312885   -2.7932295   -2.7932295   -2.1409641  0.027528657   -2.7932295   0.65226548   396203 
 4600000   0.55226202   -2.7943235   -2.7943235   -2.1429914  0.035818527   -2.7943235   0.65133207   396149 
 4610000   0.55161458   -2.7939812   -2.7939812    -2.143324  0.029408745   -2.7939812   0.65065718   396095 
 4620000   0.55138457   -2.7949811   -2.7949811   -2.1445066  0.023259805   -2.7949811   0.65047455   396041 
 4630000   0.55266613   -2.7952384   -2.7952384   -2.1431614  0.037382063   -2.7952384   0.65207698   395986 
 4640000   0.55171006   -2.7949361   -2.7949361   -2.1438984  0.032621649   -2.7949361   0.65103772   395932 
 4650000   0.55068427   -2.7937253   -2.7937253   -2.1438094  0.028536871   -2.7937253   0.64991588   395878 
 4660000   0.55016449   -2.7940617   -2.7940617   -2.1446707  0.031851659   -2.7940617   0.64939102   395824 
 4670000   0.55060757   -2.7939197   -2.7939197    -2.143917  0.033746616   -2.7939197   0.65000269   395770 
 4680000   0.55086804   -2.7942296   -2.7942296   -2.1438307  0.027526551   -2.7942296   0.65039892   395716 
 4690000   0.55114771   -2.7941586   -2.7941586   -2.1433406  0.026741559   -2.7941586   0.65081794   395662 
 4700000   0.55102112   -2.7956703   -2.7956703    -2.144913  0.029748211   -2.7956703   0.65075727   395608 
 4710000   0.55160729   -2.7948545   -2.7948545   -2.1433161   0.02949884   -2.7948545   0.65153847   395554 
 4720000    0.5513291   -2.7935398   -2.7935398    -2.142241  0.028863393   -2.7935398    0.6512988   395500 
 4730000   0.55024887   -2.7947021   -2.7947021   -2.1445906  0.025391081   -2.7947021   0.65011146   395446 
 4740000   0.55142409   -2.7951857   -2.7951857   -2.1435968  0.034392913   -2.7951857   0.65158894   395392 
 4750000   0.55042601   -2.7934101   -2.7934101   -2.1429117  0.029926128   -2.7934101   0.65049841   395338 
 4760000   0.55066251   -2.7951054   -2.7951054   -2.1442386  0.033044258   -2.7951054    0.6508668   395284 
 4770000   0.55092732   -2.7952698   -2.7952698    -2.144001  0.034424272   -2.7952698   0.65126877   395230 
 4780000   0.55056455   -2.7937441   -2.7937441   -2.1428153  0.024282763   -2.7937441   0.65092887   395176 
 4790000   0.55107348   -2.7946599   -2.7946599   -2.1430402  0.016707419   -2.7946599   0.65161961   395122 
 4800000   0.55013396   -2.7925237   -2.7925237   -2.1419261  0.043056105   -2.7925237   0.65059759   395068 
 4810000   0.54983651   -2.7947617   -2.7947617   -2.1444253  0.036077644   -2.7947617   0.65033636   395013 
 4820000   0.54946041   -2.7926446   -2.7926446   -2.1426642  0.033241658   -2.7926446   0.64998037   394959 
 4830000   0.55040184   -2.7947214   -2.7947214   -2.1435383   0.03273046   -2.7947214   0.65118306   394905 
 4840000   0.54853659   -2.7918228   -2.7918228   -2.1427577  0.028950323   -2.7918228   0.64906503   394851 
 4850000   0.54959368   -2.7936004   -2.7936004   -2.1431956  0.033691094   -2.7936004   0.65040479   394797 
 4860000   0.54988788   -2.7939183   -2.7939183   -2.1430763  0.030319462   -2.7939183   0.65084199   394743 
 4870000    0.5494863    -2.794808    -2.794808   -2.1443524  0.047584414    -2.794808   0.65045566   394689 
 4880000   0.55008933   -2.7956311   -2.7956311   -2.1443725  0.040362366   -2.7956311    0.6512586   394635 
 4890000   0.54880377   -2.7933751   -2.7933751   -2.1435496  0.033127925   -2.7933751   0.64982552   394581 
 4900000   0.54894835   -2.7938408   -2.7938408   -2.1437552  0.029811268   -2.7938408   0.65008568   394527 
 4910000   0.54953858   -2.7965098   -2.7965098   -2.1456361  0.040243985   -2.7965098   0.65087375   394473 
 4920000   0.54808614   -2.7948316   -2.7948316   -2.1455892  0.028788133   -2.7948316   0.64924235   394419 
 4930000   0.54813667   -2.7958352   -2.7958352   -2.1464441  0.023286185   -2.7958352   0.64939111   394365 
 4940000   0.54855006   -2.7975987   -2.7975987   -2.1476289  0.025861046   -2.7975987   0.64996986   394311 
 4950000   0.54764852   -2.7950475   -2.7950475    -2.146057  0.030345097   -2.7950475   0.64899052   394257 
 4960000   0.54642109   -2.7960294   -2.7960294   -2.1484047  0.040229499   -2.7960294   0.64762466   394203 
 4970000   0.54721129   -2.7953095   -2.7953095   -2.1466594  0.044123259   -2.7953095   0.64865006   394149 
 4980000   0.54644318   -2.7951135   -2.7951135   -2.1472851  0.024307232   -2.7951135   0.64782832   394095 
 4990000   0.54723951   -2.7944633   -2.7944633    -2.145602  0.031531884   -2.7944633   0.64886131   394041 
 5000000   0.54656043   -2.7956283   -2.7956283   -2.1474817  0.029210714   -2.7956283   0.64814659   393986 
 5010000   0.54725991   -2.7967425   -2.7967425   -2.1476774  0.029536596   -2.7967425   0.64906505   393932 
 5020000    0.5457742   -2.7951456   -2.7951456   -2.1477539  0.019487876   -2.7951456   0.64739169   393878 
 5030000   0.54659392   -2.7954457   -2.7954457   -2.1469927  0.037552622   -2.7954457   0.64845294   393824 
 5040000   0.54743265   -2.7996224   -2.7996224   -2.1500854   0.03366379   -2.7996224   0.64953703   393770 
 5050000   0.54608429   -2.7970577   -2.7970577   -2.1490316  0.038614475   -2.7970577   0.64802606   393716 
 5060000   0.54573731   -2.7959044   -2.7959044   -2.1482013  0.022155034   -2.7959044   0.64770313   393662 
 5070000   0.54711372   -2.7963629   -2.7963629   -2.1469371  0.023543811   -2.7963629    0.6494258   393608 
 5080000   0.54567283    -2.795358    -2.795358   -2.1475537  0.041967357    -2.795358   0.64780433   393554 
 5090000   0.54575813   -2.7967297   -2.7967297   -2.1487352  0.030222465   -2.7967297   0.64799451   393500 
 5100000   0.54625063   -2.7964154   -2.7964154   -2.1477471  0.027916206   -2.7964154   0.64866829   393446 
 5110000   0.54563719   -2.7951096   -2.7951096   -2.1470808  0.030909606   -2.7951096   0.64802877   393392 
 5120000   0.54608441   -2.7942943   -2.7942943   -2.1456453   0.03960881   -2.7942943   0.64864895   393338 
 5130000   0.54554612   -2.7951419   -2.7951419   -2.1470434  0.035759622   -2.7951419   0.64809853   393284 
 5140000   0.54473424   -2.7961082   -2.7961082   -2.1488853  0.028173495   -2.7961082   0.64722291   393230 
 5150000   0.54504025   -2.7964682   -2.7964682   -2.1487928  0.023870937   -2.7964682   0.64767544   393176 
 5160000   0.54348171   -2.7937122   -2.7937122   -2.1478001  0.023019885   -2.7937122   0.64591211   393122 
 5170000   0.54607829   -2.7962381   -2.7962381   -2.1471509  0.030460369   -2.7962381   0.64908724   393068 
 5180000   0.54479616   -2.7957252   -2.7957252   -2.1480713  0.023470907   -2.7957252   0.64765387   393013 
 5190000   0.54526595   -2.7960117   -2.7960117   -2.1477103  0.036159018   -2.7960117   0.64830144   392959 
 5200000   0.54506135   -2.7948487   -2.7948487   -2.1467014  0.022707739   -2.7948487   0.64814725   392905 
 5210000   0.54578659   -2.7949516   -2.7949516   -2.1458527  0.017876376   -2.7949516   0.64909885   392851 
 5220000   0.54516905   -2.7953347   -2.7953347   -2.1468811  0.031912765   -2.7953347   0.64845356   392797 
 5230000   0.54473976   -2.7935772   -2.7935772   -2.1455451  0.027070408   -2.7935772   0.64803203   392743 
 5240000   0.54432582   -2.7931901   -2.7931901   -2.1455615  0.041682086   -2.7931901   0.64762864   392689 
 5250000   0.54480037    -2.795635    -2.795635   -2.1473526  0.036871768    -2.795635    0.6482824   392635 
 5260000   0.54496692   -2.7970433   -2.7970433   -2.1484736  0.031777452   -2.7970433   0.64856978   392581 
 5270000   0.54449347   -2.7943417   -2.7943417   -2.1462462  0.033328406   -2.7943417   0.64809547   392527 
 5280000   0.54432488   -2.7932936   -2.7932936   -2.1453097  0.034916699   -2.7932936   0.64798395   392473 
 5290000    0.5434242   -2.7917869   -2.7917869   -2.1447861  0.024850841   -2.7917869   0.64700077   392419 
 5300000   0.54490806   -2.7952679   -2.7952679   -2.1464112  0.020040076   -2.7952679   0.64885674   392365 
 5310000   0.54360569   -2.7929561   -2.7929561   -2.1455611  0.032771216   -2.7929561   0.64739502   392311 
 5320000   0.54443767   -2.7948426   -2.7948426   -2.1463675  0.036178657   -2.7948426   0.64847511   392257 
 5330000   0.54429969   -2.7927313   -2.7927313   -2.1443313  0.032219055   -2.7927313   0.64840003   392203 
 5340000   0.54390764   -2.7927377   -2.7927377   -2.1447154  0.028156074   -2.7927377   0.64802222   392149 
 5350000    0.5442538   -2.7929561   -2.7929561   -2.1444322  0.027483578   -2.7929561   0.64852394   392095 
 5360000     0.544309   -2.7917916   -2.7917916   -2.1431125  0.033330378   -2.7917916   0.64867906   392041 
 5370000   0.54292245   -2.7925759   -2.7925759   -2.1454585  0.028139944   -2.7925759   0.64711742   391986 
 5380000   0.54310961   -2.7932184   -2.7932184   -2.1457888  0.022170328   -2.7932184   0.64742969   391932 
 5390000   0.54269869   -2.7933386   -2.7933386   -2.1463096  0.042081254   -2.7933386   0.64702899   391878 
 5400000   0.54414056   -2.7945402   -2.7945402   -2.1457028  0.025997936   -2.7945402   0.64883746   391824 
 5410000   0.54387906   -2.7935201   -2.7935201   -2.1449051  0.032335645   -2.7935201   0.64861504   391770 
 5420000   0.54319187   -2.7925717   -2.7925717   -2.1446869  0.019454441   -2.7925717   0.64788481   391716 
 5430000   0.54423956   -2.7961146   -2.7961146   -2.1468906  0.025440387   -2.7961146   0.64922393   391662 
 5440000   0.54211426    -2.794683    -2.794683   -2.1479051  0.016867663    -2.794683   0.64677783   391608 
 5450000   0.54076506    -2.791485    -2.791485   -2.1462278  0.031745145    -2.791485   0.64525713   391554 
 5460000   0.54262482   -2.7949315   -2.7949315   -2.1473659  0.021125698   -2.7949315   0.64756555   391500 
 5470000    0.5427995   -2.7942727   -2.7942727   -2.1464093  0.043508681   -2.7942727   0.64786337   391446 
 5480000   0.54261364   -2.7940522   -2.7940522   -2.1463214  0.029715278   -2.7940522   0.64773089   391392 
 5490000   0.54470993   -2.7958779   -2.7958779   -2.1455549  0.034252468   -2.7958779   0.65032301   391338 
 5500000    0.5422458    -2.793366    -2.793366   -2.1458955  0.024367832    -2.793366   0.64747045   391284 
 5510000   0.54199472   -2.7945935   -2.7945935   -2.1473335  0.035293254   -2.7945935   0.64725997   391230 
 5520000   0.54093586   -2.7961318   -2.7961318   -2.1500472   0.02835764   -2.7961318   0.64608464   391176 
 5530000   0.54049012   -2.7957933   -2.7957933   -2.1501519  0.028237512   -2.7957933   0.64564138   391122 
 5540000   0.54074343   -2.7963991   -2.7963991   -2.1503659  0.044649337   -2.7963991   0.64603318   391068 
 5550000   0.54265505   -2.7966221   -2.7966221   -2.1482139  0.037463923   -2.7966221   0.64840821   391013 
 5560000   0.54181246   -2.7955081   -2.7955081   -2.1480173  0.035210825   -2.7955081   0.64749082   390959 
 5570000   0.54109576   -2.7962943   -2.7962943   -2.1495706  0.024505674   -2.7962943   0.64672366   390905 
 5580000   0.54199064   -2.7976812   -2.7976812   -2.1497984  0.022529931   -2.7976812   0.64788273   390851 
 5590000   0.54143316   -2.7973186   -2.7973186   -2.1500129  0.026135745   -2.7973186   0.64730577   390797 
 5600000   0.54034778   -2.7971483   -2.7971483   -2.1510508  0.041872588   -2.7971483   0.64609743   390743 
 5610000   0.54059139   -2.7967899   -2.7967899   -2.1503119  0.029437508   -2.7967899   0.64647805   390689 
 5620000   0.54031318   -2.7957063   -2.7957063   -2.1494716  0.031208693   -2.7957063   0.64623468   390635 
 5630000   0.54038659   -2.7950314   -2.7950314   -2.1486196  0.030061416   -2.7950314   0.64641183   390581 
 5640000   0.54084615   -2.7963338   -2.7963338   -2.1492828  0.025667345   -2.7963338   0.64705102   390527 
 5650000   0.53991055   -2.7947926   -2.7947926   -2.1487715  0.031036501   -2.7947926   0.64602103   390473 
 5660000   0.54061809   -2.7955988   -2.7955988   -2.1486417  0.020997482   -2.7955988    0.6469571   390419 
 5670000   0.53984313   -2.7945307   -2.7945307   -2.1484116  0.022459298   -2.7945307   0.64611906   390365 
 5680000   0.53985897   -2.7943453   -2.7943453   -2.1481179   0.03903019   -2.7943453   0.64622741   390311 
 5690000   0.54068451   -2.7952188   -2.7952188   -2.1479136  0.027261429   -2.7952188   0.64730517   390257 
 5700000   0.53893534   -2.7934275   -2.7934275   -2.1481272  0.030376405   -2.7934275   0.64530036   390203 
 5710000   0.53956457     -2.79514     -2.79514   -2.1489968  0.030881305     -2.79514   0.64614319   390149 
 5720000   0.53955761   -2.7955822   -2.7955822   -2.1493579  0.030138548   -2.7955822    0.6462243   390095 
 5730000    0.5394739   -2.7949373   -2.7949373   -2.1487238  0.024575391   -2.7949373    0.6462135   390041 
 5740000   0.54033628   -2.7956653   -2.7956653   -2.1483275  0.039429219   -2.7956653   0.64733779   389986 
 5750000   0.53990056   -2.7964635   -2.7964635   -2.1495581  0.027853064   -2.7964635   0.64690536   389932 
 5760000    0.5378526   -2.7959276   -2.7959276   -2.1513868    0.0351332   -2.7959276   0.64454076   389878 
 5770000   0.53877292   -2.7967736   -2.7967736   -2.1510405  0.039202342   -2.7967736   0.64573307   389824 
 5780000   0.53910366   -2.7955484   -2.7955484   -2.1493294  0.025524541   -2.7955484     0.646219   389770 
 5790000   0.53810781   -2.7940037   -2.7940037    -2.148889  0.038109514   -2.7940037   0.64511466   389716 
 5800000   0.53953145    -2.797818    -2.797818    -2.150907  0.030505272    -2.797818   0.64691103   389662 
 5810000   0.53852863   -2.7959782   -2.7959782   -2.1501801  0.037299213   -2.7959782   0.64579813   389608 
 5820000    0.5389245    -2.795813    -2.795813   -2.1494505  0.022794129    -2.795813   0.64636243   389554 
 5830000   0.53824798    -2.795914    -2.795914   -2.1502735  0.023878922    -2.795914   0.64564054   389500 
 5840000   0.53824136   -2.7970545   -2.7970545   -2.1513324   0.03616898   -2.7970545   0.64572213   389446 
 5850000   0.53808215   -2.7954847   -2.7954847   -2.1498641  0.025702695   -2.7954847   0.64562065   389392 
 5860000   0.53857534   -2.7969107   -2.7969107   -2.1506087  0.032825307   -2.7969107   0.64630203   389338 
 5870000   0.53620984    -2.794377    -2.794377   -2.1508244  0.030901994    -2.794377   0.64355264   389284 
 5880000   0.53786974   -2.7975194   -2.7975194   -2.1518851   0.03146118   -2.7975194   0.64563439   389230 
 5890000    0.5402276   -2.7990428   -2.7990428   -2.1504882  0.021575386   -2.7990428   0.64855463   389176 
 5900000   0.53601496   -2.7951811   -2.7951811   -2.1515945  0.032841049   -2.7951811   0.64358657   389122 
 5910000   0.53729933    -2.796411    -2.796411   -2.1511928    0.0240276    -2.796411   0.64521823   389068 
 5920000   0.53853869   -2.7965574   -2.7965574   -2.1497594  0.038631622   -2.7965574   0.64679796   389013 
 5930000   0.53854389   -2.7961586   -2.7961586   -2.1492646  0.026107023   -2.7961586   0.64689401   388959 
 5940000   0.53763873   -2.7955876   -2.7955876   -2.1496912  0.042315202   -2.7955876   0.64589641   388905 
 5950000   0.53789279    -2.797365    -2.797365   -2.1510737  0.030789188    -2.797365   0.64629136   388851 
 5960000   0.53732028   -2.7976989   -2.7976989   -2.1520058   0.03593075   -2.7976989   0.64569315   388797 
 5970000   0.53895071   -2.7974954   -2.7974954    -2.149753  0.028905466   -2.7974954   0.64774239   388743 
 5980000   0.53867185   -2.7967842   -2.7967842    -2.149287  0.032616608   -2.7967842   0.64749717   388689 
 5990000   0.53853282   -2.7971356   -2.7971356   -2.1497156  0.037111183   -2.7971356   0.64742001   388635 
 6000000   0.53762575   -2.7953331   -2.7953331   -2.1489138   0.04008667   -2.7953331   0.64641935   388581 
 6010000   0.53696814   -2.7951926   -2.7951926   -2.1494742  0.020218076   -2.7951926    0.6457184   388527 
 6020000   0.53631203   -2.7945936   -2.7945936   -2.1495745  0.027540923   -2.7945936   0.64501905   388473 
 6030000   0.53686816   -2.7963429   -2.7963429   -2.1505652  0.035514533   -2.7963429   0.64577768   388419 
 6040000   0.53658309   -2.7937252   -2.7937252   -2.1482007   0.01821934   -2.7937252   0.64552453   388365 
 6050000   0.53685552   -2.7975776   -2.7975776   -2.1516355  0.030459844   -2.7975776   0.64594208   388311 
 6060000   0.53632136   -2.7972696   -2.7972696   -2.1518804  0.023271894   -2.7972696   0.64538913   388257 
 6070000   0.53627937   -2.7958553   -2.7958553    -2.150427   0.02796439   -2.7958553   0.64542838   388203 
 6080000   0.53618522   -2.7937466   -2.7937466   -2.1483418  0.021224688   -2.7937466   0.64540484   388149 
 6090000   0.53603969   -2.7952828   -2.7952828   -2.1499634  0.032215832   -2.7952828   0.64531943   388095 
 6100000   0.53575702   -2.7966303   -2.7966303   -2.1515614  0.025838311   -2.7966303   0.64506889   388041 
 6110000   0.53522514   -2.7960649   -2.7960649    -2.151545   0.03055242   -2.7960649   0.64451985   387986 
 6120000   0.53611489   -2.7972472   -2.7972472    -2.151566  0.024645643   -2.7972472   0.64568116   387932 
 6130000   0.53497401   -2.7961778   -2.7961778    -2.151781  0.028910874   -2.7961778   0.64439681   387878 
 6140000   0.53437415   -2.7972968   -2.7972968   -2.1535329  0.037117343   -2.7972968   0.64376388   387824 
 6150000   0.53489736   -2.7976558   -2.7976558   -2.1531719  0.039749341   -2.7976558   0.64448393   387770 
 6160000   0.53442893   -2.7973959   -2.7973959   -2.1533867  0.027666882   -2.7973959   0.64400922   387716 
 6170000   0.53536005   -2.7980909   -2.7980909   -2.1528698  0.032120448   -2.7980909   0.64522112   387662 
 6180000   0.53474349   -2.7962054   -2.7962054   -2.1516376  0.035813251   -2.7962054   0.64456783   387608 
 6190000   0.53414537    -2.796919    -2.796919   -2.1529824  0.020527343    -2.796919   0.64393657   387554 
 6200000   0.53368572   -2.7972853   -2.7972853   -2.1538132  0.025226314   -2.7972853    0.6434721   387500 
 6210000    0.5331633   -2.7964246   -2.7964246   -2.1534928  0.032109362   -2.7964246   0.64293181   387446 
 6220000   0.53329158   -2.7975506   -2.7975506   -2.1543745  0.015608068   -2.7975506   0.64317614   387392 
 6230000    0.5337041   -2.7958329   -2.7958329   -2.1520695  0.036861592   -2.7958329   0.64376339   387338 
 6240000   0.53191361   -2.7950816   -2.7950816   -2.1533885  0.032055444   -2.7950816   0.64169314   387284 
 6250000   0.53371307   -2.7957436   -2.7957436   -2.1517899  0.024910938   -2.7957436   0.64395377   387230 
 6260000   0.53298196   -2.7969407   -2.7969407   -2.1537794   0.03102663   -2.7969407   0.64316134   387176 
 6270000   0.53275568   -2.7950044   -2.7950044   -2.1520264  0.035060195   -2.7950044   0.64297796   387122 
 6280000    0.5324895   -2.7967623   -2.7967623   -2.1540159  0.037845421   -2.7967623   0.64274636   387068 
 6290000   0.53197702    -2.793539    -2.793539     -2.15132  0.022445591    -2.793539   0.64221903   387013 
 6300000   0.53325897   -2.7959835   -2.7959835   -2.1521271  0.025225613   -2.7959835   0.64385647   386959 
 6310000   0.53185256   -2.7953592   -2.7953592   -2.1531112  0.028680836   -2.7953592     0.642248   386905 
 6320000   0.53190416   -2.7960791   -2.7960791   -2.1536792  0.030342127   -2.7960791   0.64239997   386851 
 6330000   0.53303433   -2.7973401   -2.7973401   -2.1534853  0.023882983   -2.7973401   0.64385479   386797 
 6340000   0.53269848   -2.7961699   -2.7961699    -2.152631  0.028749933   -2.7961699   0.64353896   386743 
 6350000   0.53206032   -2.7973444   -2.7973444   -2.1544866  0.031141145   -2.7973444   0.64285777   386689 
 6360000   0.53137931   -2.7963608   -2.7963608   -2.1542362  0.022728501   -2.7963608   0.64212462   386635 
 6370000   0.53317478   -2.7959839   -2.7959839   -2.1515996  0.034336168   -2.7959839   0.64438429   386581 
 6380000   0.53177203    -2.794569    -2.794569   -2.1517902  0.028617761    -2.794569   0.64277874   386527 
 6390000   0.53217949   -2.7945246   -2.7945246   -2.1511635  0.033293567   -2.7945246   0.64336114   386473 
 6400000    0.5330253   -2.7954708   -2.7954708   -2.1509971  0.033190316   -2.7954708    0.6444737   386419 
 6410000   0.53280037   -2.7951995   -2.7951995   -2.1509078  0.038059614   -2.7951995   0.64429177   386365 
 6420000   0.53182032    -2.793558    -2.793558   -2.1503615  0.031751734    -2.793558   0.64319654   386311 
 6430000   0.53271202   -2.7948361   -2.7948361   -2.1504711  0.021930371   -2.7948361   0.64436505   386257 
 6440000   0.53255791   -2.7953388   -2.7953388   -2.1510701  0.045876453   -2.7953388   0.64426872   386203 
 6450000   0.52990085   -2.7916841   -2.7916841   -2.1505401  0.031319318   -2.7916841   0.64114396   386149 
 6460000   0.53328611   -2.7949435   -2.7949435   -2.1496134  0.030048864   -2.7949435   0.64533013   386095 
 6470000   0.53135035   -2.7937879   -2.7937879   -2.1507102  0.029904744   -2.7937879   0.64307761   386041 
 6480000   0.53349901   -2.7953896   -2.7953896   -2.1496196  0.029845612   -2.7953896   0.64577007   385986 
 6490000    0.5314151   -2.7949281   -2.7949281   -2.1515904  0.019124619   -2.7949281   0.64333762   385932 
 6500000   0.53155713    -2.793642    -2.793642   -2.1500424  0.028566946    -2.793642   0.64359961   385878 
 6510000   0.53091727    -2.792779    -2.792779   -2.1498642  0.018376263    -2.792779   0.64291485   385824 
[...]
17550000   0.41831328   -2.8077462   -2.8077462   -2.2085053  0.014447001   -2.8077462    0.5992409   326149 
17560000   0.41736546   -2.8078392   -2.8078392    -2.209857  0.033140887   -2.8078392   0.59798214   326095 
17570000   0.41781291   -2.8099838   -2.8099838   -2.2112614  0.033784762   -2.8099838   0.59872238   326041 
17580000   0.41750528   -2.8076453   -2.8076453   -2.2092628  0.036299554   -2.8076453   0.59838248   325986 
17590000   0.41823639   -2.8065312   -2.8065312   -2.2070016  0.024850022   -2.8065312   0.59952965   325932 
17600000   0.41742469   -2.8083183   -2.8083183   -2.2098531  0.020895807   -2.8083183   0.59846525   325878 
17610000   0.41778004   -2.8074264   -2.8074264   -2.2083524  0.041127566   -2.8074264   0.59907399   325824 
17620000   0.41721952   -2.8082782   -2.8082782   -2.2099088   0.03007099   -2.8082782   0.59836941   325770 
17630000   0.41778027    -2.809025    -2.809025    -2.209752  0.041435046    -2.809025   0.59927296   325716 
17640000   0.41672889   -2.8072816   -2.8072816   -2.2094176  0.037770834   -2.8072816   0.59786395   325662 
17650000   0.41743738   -2.8074554   -2.8074554   -2.2084756  0.024386637   -2.8074554   0.59897972   325608 
17660000   0.41859166   -2.8091581   -2.8091581   -2.2084225  0.035052994   -2.8091581   0.60073562   325554 
17670000   0.41717283   -2.8080504   -2.8080504   -2.2092517  0.025009067   -2.8080504   0.59879872   325500 
17680000   0.41617167    -2.808209    -2.808209   -2.2107482  0.022862675    -2.808209   0.59746081   325446 
17690000   0.41657925   -2.8074097   -2.8074097   -2.2092645  0.021812539   -2.8074097   0.59814519   325392 
17700000   0.41689457   -2.8074941   -2.8074941   -2.2087968  0.018137692   -2.8074941   0.59869729   325338 
17710000   0.41704129   -2.8085112   -2.8085112   -2.2095038  0.017368811   -2.8085112   0.59900742   325284 
17720000   0.41648837   -2.8082252   -2.8082252   -2.2099126  0.026575223   -2.8082252   0.59831258   325230 
17730000   0.41796984   -2.8106959   -2.8106959   -2.2101554  0.028422583   -2.8106959   0.60054052   325176 
17740000   0.41630243    -2.806826    -2.806826   -2.2085818  0.022240254    -2.806826   0.59824412   325122 
17750000   0.41696189    -2.807617    -2.807617   -2.2083257   0.02802765    -2.807617   0.59929132   325068 
17760000   0.41599956   -2.8069783   -2.8069783   -2.2089689   0.02912457   -2.8069783   0.59800937   325013 
17770000   0.41582652   -2.8067747   -2.8067747   -2.2089147  0.031390562   -2.8067747   0.59785995   324959 
17780000   0.41669386   -2.8056185   -2.8056185   -2.2064119  0.029349391   -2.8056185   0.59920656   324905 
17790000   0.41558879   -2.8059487   -2.8059487   -2.2082319  0.029008868   -2.8059487   0.59771681   324851 
17800000   0.41540732   -2.8062141   -2.8062141   -2.2086589  0.019438316   -2.8062141   0.59755514   324797 
17810000   0.41524186   -2.8051721   -2.8051721   -2.2077556  0.024121989   -2.8051721   0.59741645   324743 
17820000   0.41598164   -2.8047517   -2.8047517   -2.2061714  0.025372788   -2.8047517   0.59858032   324689 
17830000   0.41637623   -2.8046572   -2.8046572   -2.2054094  0.031825351   -2.8046572   0.59924778   324635 
17840000   0.41541402   -2.8064752   -2.8064752   -2.2085128  0.021661037   -2.8064752   0.59796244   324581 
17850000   0.41496333   -2.8053881   -2.8053881    -2.207975  0.033734266   -2.8053881   0.59741308   324527 
17860000   0.41478922   -2.8068426   -2.8068426   -2.2095808  0.021632599   -2.8068426   0.59726181   324473 
17870000   0.41468266   -2.8070963   -2.8070963   -2.2098886  0.019175841   -2.8070963   0.59720777   324419 
17880000   0.41509206   -2.8093098   -2.8093098   -2.2114129  0.023131633   -2.8093098   0.59789689   324365 
17890000   0.41429724   -2.8083888   -2.8083888   -2.2115374  0.019465075   -2.8083888   0.59685138   324311 
17900000   0.41488347   -2.8100672   -2.8100672   -2.2122718  0.023323583   -2.8100672   0.59779547   324257 
17910000   0.41446063   -2.8096425   -2.8096425   -2.2123568  0.019571512   -2.8096425   0.59728568   324203 
17920000   0.41384731   -2.8097813   -2.8097813   -2.2132801  0.035116006   -2.8097813   0.59650116   324149 
17930000   0.41505957   -2.8095077   -2.8095077   -2.2111595  0.025662288   -2.8095077   0.59834814   324095 
17940000    0.4149399    -2.807964    -2.807964   -2.2096887  0.024091602    -2.807964   0.59827531   324041 
17950000   0.41382329   -2.8065559   -2.8065559   -2.2097893  0.030602082   -2.8065559   0.59676663   323986 
17960000   0.41428841   -2.8067634   -2.8067634   -2.2092265  0.019048144   -2.8067634   0.59753697   323932 
17970000   0.41419106   -2.8071883   -2.8071883   -2.2096922  0.024546686   -2.8071883   0.59749616   323878 
17980000   0.41396049   -2.8060153   -2.8060153   -2.2087522   0.01764367   -2.8060153   0.59726313   323824 
17990000   0.41399867   -2.8071271   -2.8071271   -2.2097093  0.022745353   -2.8071271   0.59741784   323770 
18000000   0.41367736   -2.8080868   -2.8080868    -2.211033  0.036137661   -2.8080868   0.59705375   323716 
18010000   0.41317515   -2.8084523   -2.8084523   -2.2120239  0.035262263   -2.8084523   0.59642842   323662 
18020000   0.41354061    -2.808825    -2.808825   -2.2117694  0.014450375    -2.808825   0.59705558   323608 
18030000     0.414023   -2.8077722   -2.8077722   -2.2099204  0.021091913   -2.8077722   0.59785181   323554 
18040000   0.41338923   -2.8057734   -2.8057734   -2.2087371  0.027904817   -2.8057734   0.59703627   323500 
18050000   0.41474726   -2.8072827   -2.8072827   -2.2081851  0.015363555   -2.8072827   0.59909762   323446 
18060000   0.41407777   -2.8066547   -2.8066547   -2.2084243  0.028368881   -2.8066547   0.59823042   323392 
18070000   0.41427942   -2.8072009   -2.8072009   -2.2085792  0.019186485   -2.8072009   0.59862171   323338 
18080000   0.41479691   -2.8101765   -2.8101765    -2.210707  0.025743508   -2.8101765   0.59946958   323284 
18090000   0.41167886   -2.8063369   -2.8063369   -2.2112741  0.031669637   -2.8063369   0.59506273   323230 
18100000   0.41305201   -2.8095083   -2.8095083    -2.212361  0.028342884   -2.8095083   0.59714731   323176 
18110000   0.41194311   -2.8070267   -2.8070267    -2.211383  0.025220441   -2.8070267   0.59564371   323122 
18120000    0.4126843   -2.8095439   -2.8095439   -2.2127288  0.033644239   -2.8095439   0.59681517   323068 
18130000   0.41230463   -2.8084148   -2.8084148   -2.2120471  0.043592947   -2.8084148   0.59636763   323013 
18140000   0.41202909   -2.8078239   -2.8078239   -2.2117552  0.031441843   -2.8078239   0.59606873   322959 
18150000   0.41327704   -2.8114893   -2.8114893   -2.2135152  0.016737097   -2.8114893   0.59797408   322905 
18160000   0.41237228   -2.8083696   -2.8083696   -2.2116048  0.020042617   -2.8083696   0.59676476   322851 
18170000    0.4126455   -2.8099633   -2.8099633   -2.2127032  0.030397945   -2.8099633   0.59726006   322797 
18180000   0.41157861   -2.8101626   -2.8101626   -2.2143471  0.038475964   -2.8101626   0.59581553   322743 
18190000    0.4134782   -2.8113038   -2.8113038   -2.2126382  0.014091965   -2.8113038   0.59866561   322689 
18200000   0.41364182   -2.8087688   -2.8087688    -2.209766  0.030760393   -2.8087688   0.59900274   322635 
18210000   0.41162894    -2.810488    -2.810488   -2.2143004  0.027577786    -2.810488   0.59618764   322581 
18220000   0.41222323   -2.8096848   -2.8096848   -2.2125364  0.020955404   -2.8096848   0.59714834   322527 
18230000   0.41061353   -2.8087316   -2.8087316   -2.2138154  0.033955012   -2.8087316   0.59491614   322473 
18240000    0.4112948   -2.8100537   -2.8100537   -2.2140507  0.032555641   -2.8100537   0.59600299   322419 
18250000   0.41182049   -2.8115701   -2.8115701   -2.2147054  0.033252594   -2.8115701   0.59686473   322365 
18260000   0.40952648   -2.8093895   -2.8093895   -2.2157501  0.034569903   -2.8093895   0.59363939   322311 
18270000   0.41127576   -2.8105998   -2.8105998   -2.2143248   0.02384375   -2.8105998     0.596275   322257 
18280000   0.41100749   -2.8096225   -2.8096225   -2.2136366  0.035122159   -2.8096225   0.59598593   322203 
18290000   0.41081366    -2.810552    -2.810552   -2.2147473  0.033155187    -2.810552   0.59580472   322149 
18300000   0.41000607   -2.8076582   -2.8076582    -2.212925  0.026296765   -2.8076582   0.59473316   322095 
18310000    0.4105929   -2.8090897   -2.8090897   -2.2134054   0.02185595   -2.8090897   0.59568425   322041 
18320000   0.40978487    -2.806502    -2.806502   -2.2118884  0.022138699    -2.806502   0.59461352   321986 
18330000    0.4110293   -2.8092901   -2.8092901   -2.2127708  0.034889879   -2.8092901   0.59651928   321932 
18340000   0.41047699   -2.8091581   -2.8091581   -2.2133404  0.022127388   -2.8091581   0.59581766   321878 
18350000   0.41043385   -2.8098677   -2.8098677   -2.2140127  0.029751119   -2.8098677   0.59585501   321824 
18360000   0.40929709   -2.8093366   -2.8093366   -2.2150322  0.028884544   -2.8093366   0.59430441   321770 
18370000   0.40961865   -2.8081141   -2.8081141   -2.2132429  0.039227082   -2.8081141   0.59487116   321716 
18380000   0.41002506   -2.8099033   -2.8099033    -2.214342  0.026344271   -2.8099033   0.59556133   321662 
18390000   0.40884882   -2.8104625   -2.8104625     -2.21651  0.026522886   -2.8104625   0.59395255   321608 
18400000   0.40928368   -2.8088372   -2.8088372   -2.2141531  0.026196301   -2.8088372   0.59468415   321554 
18410000   0.40898567   -2.8076805   -2.8076805   -2.2133295  0.028947301   -2.8076805   0.59435095   321500 
18420000   0.40956956    -2.808077    -2.808077   -2.2127776  0.028966887    -2.808077   0.59529947   321446 
18430000    0.4088313    -2.808117    -2.808117   -2.2137907  0.017351598    -2.808117   0.59432626   321392 
18440000   0.40890804   -2.8096822   -2.8096822   -2.2151445  0.025523538   -2.8096822   0.59453772   321338 
18450000   0.40876367   -2.8090322   -2.8090322   -2.2146045  0.021661494   -2.8090322    0.5944277   321284 
18460000   0.40910673   -2.8086514   -2.8086514   -2.2136248  0.025648207   -2.8086514   0.59502659   321230 
18470000   0.40800393   -2.8063094   -2.8063094    -2.212787  0.027845251   -2.8063094    0.5935224   321176 
18480000    0.4081413   -2.8074037   -2.8074037   -2.2135816  0.026946858   -2.8074037   0.59382206   321122 
18490000   0.40891808   -2.8072052   -2.8072052   -2.2121529  0.031187869   -2.8072052   0.59505231   321068 
18500000   0.40878871   -2.8075037   -2.8075037   -2.2125377  0.028636393   -2.8075037   0.59496596   321013 
18510000   0.40892464   -2.8078278   -2.8078278   -2.2125638  0.031867319   -2.8078278   0.59526393   320959 
18520000   0.40897824   -2.8073289   -2.8073289   -2.2118867   0.03231596   -2.8073289   0.59544214   320905 
18530000   0.40891085   -2.8075641   -2.8075641   -2.2121199  0.035592625   -2.8075641   0.59544422   320851 
18540000   0.40882123   -2.8086765   -2.8086765   -2.2132626  0.016247474   -2.8086765   0.59541393   320797 
18550000   0.40898382   -2.8094774   -2.8094774   -2.2137264  0.027330794   -2.8094774   0.59575102   320743 
18560000   0.40800723   -2.8081551   -2.8081551   -2.2137265  0.019625032   -2.8081551   0.59442852   320689 
18570000   0.40890857   -2.8091109   -2.8091109   -2.2132689  0.033535316   -2.8091109   0.59584203   320635 
18580000    0.4071497   -2.8078581   -2.8078581   -2.2144791  0.032289301   -2.8078581   0.59337903   320581 
18590000     0.408332    -2.808442    -2.808442   -2.2132396  0.022766573    -2.808442   0.59520235   320527 
18600000   0.40727417   -2.8096766   -2.8096766   -2.2159162  0.025856484   -2.8096766   0.59376046   320473 
18610000    0.4085583   -2.8117249   -2.8117249   -2.2159919   0.03506948   -2.8117249   0.59573296   320419 
18620000   0.40812055   -2.8097551   -2.8097551   -2.2145602  0.025917493   -2.8097551   0.59519496   320365 
18630000    0.4079048   -2.8102806   -2.8102806      -2.2153  0.032557975   -2.8102806   0.59498061   320311 
18640000   0.40780953   -2.8101849   -2.8101849   -2.2152429  0.034087091   -2.8101849   0.59494194   320257 
18650000   0.40715141    -2.809145    -2.809145    -2.215063  0.025178951    -2.809145     0.594082   320203 
18660000   0.40782864   -2.8093355   -2.8093355    -2.214165  0.020552073   -2.8093355   0.59517053   320149 
18670000   0.40868723   -2.8118602   -2.8118602   -2.2153361  0.017920317   -2.8118602   0.59652414   320095 
18680000   0.40807258    -2.809482    -2.809482   -2.2137545  0.025565995    -2.809482    0.5957275   320041 
18690000    0.4077412   -2.8094586   -2.8094586   -2.2141125  0.031110941   -2.8094586   0.59534604   319986 
18700000   0.40662404   -2.8095321   -2.8095321   -2.2157171    0.0159503   -2.8095321   0.59381507   319932 
18710000   0.40752995   -2.8110354   -2.8110354   -2.2157969  0.033557939   -2.8110354    0.5952385   319878 
18720000   0.40593731    -2.809006    -2.809006   -2.2159936  0.020390951    -2.809006    0.5930124   319824 
18730000    0.4056095   -2.8091633   -2.8091633   -2.2165297  0.021586033   -2.8091633   0.59263357   319770 
18740000   0.40612728    -2.811979    -2.811979   -2.2184887   0.01741793    -2.811979   0.59349032   319716 
18750000   0.40746894   -2.8126562   -2.8126562   -2.2171047  0.025821652   -2.8126562   0.59555153   319662 
18760000   0.40585431   -2.8138578   -2.8138578   -2.2205659  0.023098647   -2.8138578   0.59329182   319608 
18770000    0.4061335   -2.8125814   -2.8125814   -2.2187812  0.024160404   -2.8125814   0.59380028   319554 
18780000   0.40541461   -2.8131761   -2.8131761   -2.2203267  0.037322816   -2.8131761    0.5928494   319500 
18790000   0.40549706   -2.8132723   -2.8132723   -2.2202021  0.022550039   -2.8132723    0.5930702   319446 
18800000   0.40643237   -2.8142452   -2.8142452   -2.2197065  0.025789399   -2.8142452   0.59453866   319392 
18810000   0.40445814   -2.8119326   -2.8119326   -2.2201819  0.030810713   -2.8119326   0.59175077   319338 
18820000   0.40510505   -2.8121766   -2.8121766   -2.2193792  0.016308612   -2.8121766   0.59279749   319284 
18830000   0.40444916   -2.8128751   -2.8128751   -2.2209372  0.032745182   -2.8128751   0.59193781   319230 
18840000   0.40488597    -2.814002    -2.814002   -2.2213246  0.017764679    -2.814002   0.59267737   319176 
18850000   0.40382546   -2.8136695   -2.8136695   -2.2224445  0.029118261   -2.8136695   0.59122502   319122 
18860000   0.40456552    -2.812552    -2.812552   -2.2201433  0.022626052    -2.812552   0.59240875   319068 
18870000   0.40416851   -2.8137732   -2.8137732   -2.2218438  0.020455976   -2.8137732   0.59192944   319013 
18880000   0.40458048   -2.8144865   -2.8144865   -2.2218534   0.02380925   -2.8144865   0.59263311   318959 
18890000   0.40499355     -2.81466     -2.81466   -2.2213214  0.025800546     -2.81466   0.59333863   318905 
18900000   0.40552603   -2.8149292   -2.8149292   -2.2207098  0.022657295   -2.8149292   0.59421937   318851 
18910000   0.40532542   -2.8150899   -2.8150899   -2.2210639  0.029667114   -2.8150899   0.59402602   318797 
18920000   0.40502538   -2.8118118   -2.8118118    -2.218125  0.026422518   -2.8118118   0.59368686   318743 
18930000   0.40429712   -2.8140273   -2.8140273   -2.2213075  0.018612835   -2.8140273   0.59271978   318689 
18940000   0.40519468   -2.8161867   -2.8161867   -2.2220504  0.034634243   -2.8161867   0.59413632   318635 
18950000   0.40438195   -2.8143407   -2.8143407   -2.2212956  0.016529457   -2.8143407   0.59304513   318581 
18960000   0.40540596   -2.8155631   -2.8155631   -2.2209155  0.016606318   -2.8155631   0.59464767   318527 
18970000   0.40456239   -2.8141655   -2.8141655   -2.2206546  0.028571634   -2.8141655   0.59351095   318473 
18980000   0.40357574   -2.8131216   -2.8131216   -2.2209577  0.020600949   -2.8131216    0.5921639   318419 
18990000   0.40453692   -2.8161226   -2.8161226   -2.2224477  0.022415699   -2.8161226   0.59367491   318365 
19000000    0.4044334   -2.8170593   -2.8170593   -2.2234356  0.023645154   -2.8170593   0.59362368   318311 
19010000   0.40375495   -2.8134829   -2.8134829   -2.2207545   0.03127639   -2.8134829   0.59272841   318257 
19020000   0.40348946   -2.8150211   -2.8150211   -2.2225819  0.027967582   -2.8150211   0.59243917   318203 
19030000   0.40174724   -2.8145383   -2.8145383   -2.2245571  0.025830073   -2.8145383   0.58998121   318149 
19040000     0.402509   -2.8148573   -2.8148573    -2.223657  0.017820082   -2.8148573   0.59120025   318095 
19050000   0.40413554   -2.8162791   -2.8162791    -2.222589  0.022795486   -2.8162791   0.59369006   318041 
19060000   0.40383731   -2.8156031   -2.8156031   -2.2222485  0.016792837   -2.8156031   0.59335457   317986 
19070000   0.40235908   -2.8154302   -2.8154302   -2.2241472  0.024251868   -2.8154302   0.59128303   317932 
19080000   0.40261232   -2.8141157   -2.8141157     -2.22236  0.024291971   -2.8141157   0.59175568   317878 
19090000   0.40234198   -2.8133174   -2.8133174   -2.2218586   0.03649648   -2.8133174   0.59145881   317824 
19100000   0.40332547   -2.8140282   -2.8140282   -2.2210229  0.035431714   -2.8140282   0.59300534   317770 
19110000   0.40325754   -2.8145376   -2.8145376   -2.2215314  0.024247798   -2.8145376   0.59300623   317716 
19120000    0.4030385   -2.8144534   -2.8144534   -2.2216685  0.019114757   -2.8144534   0.59278488   317662 
19130000   0.40372783   -2.8159484   -2.8159484   -2.2220487  0.021438322   -2.8159484    0.5938997   317608 
19140000   0.40275004    -2.814841    -2.814841   -2.2222789  0.023505121    -2.814841   0.59256207   317554 
19150000   0.40235465   -2.8137086   -2.8137086   -2.2216275  0.028081085   -2.8137086   0.59208102   317500 
19160000   0.40253615    -2.814633    -2.814633   -2.2221841  0.025179377    -2.814633   0.59244888   317446 
19170000   0.40152819      -2.8145      -2.8145   -2.2234341  0.018661893      -2.8145   0.59106591   317392 
19180000   0.40241971   -2.8139029   -2.8139029   -2.2214239   0.03171679   -2.8139029   0.59247907   317338 
19190000   0.40149169   -2.8142843   -2.8142843   -2.2230709  0.025153572   -2.8142843   0.59121336   317284 
19200000   0.40194176   -2.8141071   -2.8141071   -2.2221303  0.013226562   -2.8141071   0.59197686   317230 
19210000   0.40231412   -2.8155044   -2.8155044   -2.2228783  0.028829777   -2.8155044   0.59262615   317176 
19220000   0.40152396   -2.8159297   -2.8159297   -2.2243668  0.027329495   -2.8159297   0.59156291   317122 
19230000   0.40063482   -2.8173435   -2.8173435     -2.22699  0.020476927   -2.8173435   0.59035348   317068 
19240000    0.4012316   -2.8176796   -2.8176796   -2.2263442  0.021046267   -2.8176796   0.59133544   317013 
19250000   0.40143325   -2.8169268   -2.8169268   -2.2251934  0.019943183   -2.8169268   0.59173342   316959 
19260000   0.40218053   -2.8185677   -2.8185677   -2.2256317  0.028502911   -2.8185677   0.59293596   316905 
19270000   0.40103685   -2.8165727   -2.8165727   -2.2252221  0.022279333   -2.8165727   0.59135061   316851 
19280000   0.40147828   -2.8168235   -2.8168235   -2.2247211  0.025202016   -2.8168235   0.59210243   316797 
19290000   0.40013345   -2.8163994   -2.8163994   -2.2261797  0.029689936   -2.8163994   0.59021967   316743 
19300000   0.40052738   -2.8177179   -2.8177179   -2.2268165  0.027883413   -2.8177179   0.59090148   316689 
19310000   0.40183658   -2.8180468   -2.8180468   -2.2251127  0.034706905   -2.8180468   0.59293406   316635 
19320000   0.39952725   -2.8179188   -2.8179188   -2.2282918  0.028555331   -2.8179188   0.58962707   316581 
19330000    0.4002167   -2.8193331   -2.8193331   -2.2285878  0.022227486   -2.8193331   0.59074533   316527 
19340000   0.39987711   -2.8179238   -2.8179238   -2.2275791  0.029908073   -2.8179238   0.59034478   316473 
19350000   0.39919815   -2.8172978   -2.8172978   -2.2278548  0.025878524   -2.8172978     0.589443   31