LAMMPS (29 Oct 2020)
  using 1 OpenMP thread(s) per MPI task
Created orthogonal box = (0.0000000 0.0000000 0.0000000) to (160.00000 160.00000 160.00000)
  4 by 4 by 8 MPI processor grid
Lattice spacing in x,y,z = 1.0000000 1.0000000 1.0000000
Created 4096000 atoms
  create_atoms CPU = 0.185 seconds
4096000 atoms in group solvent
Reading data file ...
  orthogonal box = (0.0000000 0.0000000 0.0000000) to (160.00000 160.00000 320.00000)
  4 by 4 by 8 MPI processor grid
Finding 1-2 1-3 1-4 neighbors ...
  special bond factors lj:    0.0      0.0      0.0     
  special bond factors coul:  0.0      0.0      0.0     
     0 = max # of 1-2 neighbors
     0 = max # of 1-3 neighbors
     0 = max # of 1-4 neighbors
     1 = max # of special neighbors
  special bonds CPU = 18.369 seconds
  read_data CPU = 18.425 seconds
Balancing ...
Neighbor list info ...
  update every 1 steps, delay 10 steps, check yes
  max neighbors/atom: 2000, page size: 100000
  master list distance cutoff = 2.9
  ghost atom cutoff = 2.9
  binsize = 1.45, bins = 111 111 221
  1 neighbor lists, perpetual/occasional/extra = 1 0 0
  (1) pair lj/cut/opt, perpetual
      attributes: half, newton on
      pair build: half/bin/newton
      stencil: half/bin/3d/newton
      bin: standard
 rebalancing time: 0.066 seconds
  iteration count = 5
  initial/final maximal load/proc = 64000.000 40000.000
  initial/final imbalance factor  = 2.0000000 1.2500000
  x cuts: 0.0000000 0.25 0.5 0.75 1.0000000
  y cuts: 0.0000000 0.25 0.5 0.75 1.0000000
  z cuts: 0.0000000 0.0625 0.12890625 0.1875 0.2578125 0.30859375 0.38671875 0.4375 1.0000000
WARNING: Ignoring 'compress yes' for molecular system (src/delete_atoms.cpp:125)
Deleted 51200 atoms, new total = 4044800
dynamic group thermo defined
New timer settings: style=full  mode=nosync  timeout=off
Per MPI rank memory allocation (min/avg/max) = 31.20 | 38.67 | 40.91 Mbytes
Step Temp E_pair E_vdwl TotEng Press PotEng KinEng Volume 
       0   0.99995227   -3.3139444   -3.3139444   -1.8140164    8.8028552   -3.3139444     1.499928      8192000 
    1000    1.7051308   -4.4201082   -4.4201082   -1.8624127    5.9549191   -4.4201082    2.5576955      8192000 
    2000    1.7138113   -4.4889581   -4.4889581   -1.9182418    5.1579616   -4.4889581    2.5707163      8192000 
    3000    1.7259282   -4.5566336   -4.5566336   -1.9677419    4.3734621   -4.5566336    2.5888917      8192000 
    4000    1.7168499   -4.5863717   -4.5863717   -2.0110975    3.7097127   -4.5863717    2.5752742      8192000 
    5000    1.7099541   -4.6142513   -4.6142513   -2.0493209    3.0706858   -4.6142513    2.5649305      8192000 
    6000    1.7146715   -4.6518552   -4.6518552   -2.0798486     2.412585   -4.6518552    2.5720066      8192000 
    7000    1.7225318   -4.6807485   -4.6807485   -2.0969515    1.7701905   -4.6807485     2.583797      8192000 
    8000    1.7162331   -4.6741993   -4.6741993   -2.0998503     1.225732   -4.6741993    2.5743491      8192000 
    9000    1.6946429   -4.6340706   -4.6340706   -2.0921068   0.80080455   -4.6340706    2.5419637      8192000 
   10000    1.6606721   -4.5696562   -4.5696562   -2.0786486   0.49367321   -4.5696562    2.4910076      8192000 
   11000    1.6223739   -4.4954096   -4.4954096   -2.0618494   0.28222519   -4.4954096    2.4335602      8192000 
   12000    1.5852472   -4.4223471   -4.4223471    -2.044477   0.14452786   -4.4223471    2.3778701      8192000 
   13000    1.5546134   -4.3591982   -4.3591982   -2.0272787  0.075430338   -4.3591982    2.3319195      8192000 
   14000    1.5383197    -4.318767    -4.318767    -2.011288  0.078242289    -4.318767     2.307479      8192000 
   15000    1.5398404   -4.3067016   -4.3067016   -1.9969417    0.1386812   -4.3067016      2.30976      8192000 
   16000    1.5479372   -4.3064706   -4.3064706   -1.9845654   0.20643659   -4.3064706    2.3219052      8192000 
   17000    1.5534675   -4.3047041   -4.3047041   -1.9745035    0.2460757   -4.3047041    2.3302006      8192000 
   18000    1.5559548   -4.3001349   -4.3001349   -1.9662032   0.26525176   -4.3001349    2.3339317      8192000 
   19000    1.5578571    -4.295884    -4.295884   -1.9590989   0.27417343    -4.295884    2.3367851      8192000 
   20000    1.5589289    -4.291984    -4.291984   -1.9535912   0.28082677    -4.291984    2.3383928      8192000 
   21000    1.5595629   -4.2884274   -4.2884274   -1.9490836   0.29250278   -4.2884274    2.3393438      8192000 
   22000    1.5600238   -4.2853875   -4.2853875   -1.9453525   0.30406246   -4.2853875    2.3400351      8192000 
   23000    1.5607462   -4.2832997   -4.2832997   -1.9421809   0.30737315   -4.2832997    2.3411188      8192000 
   24000    1.5607966   -4.2806632   -4.2806632   -1.9394688   0.31394222   -4.2806632    2.3411943      8192000 
   25000    1.5624865   -4.2805598   -4.2805598   -1.9368307   0.31992779   -4.2805598    2.3437291      8192000 
   26000    1.5631126   -4.2795902   -4.2795902    -1.934922   0.32958458   -4.2795902    2.3446683      8192000 
   27000    1.5657239   -4.2814816   -4.2814816   -1.9328963   0.34403678   -4.2814816    2.3485853      8192000 
   28000    1.5682508   -4.2835524   -4.2835524   -1.9311768    0.3639658   -4.2835524    2.3523756      8192000 
   29000    1.5703211   -4.2848553   -4.2848553   -1.9293742   0.37728128   -4.2848553    2.3554811      8192000 
   30000    1.5716091   -4.2853368   -4.2853368   -1.9279237   0.38943348   -4.2853368     2.357413      8192000 
   31000     1.572194   -4.2847379   -4.2847379   -1.9264475     0.397111   -4.2847379    2.3582904      8192000 
   32000    1.5728073   -4.2843655   -4.2843655   -1.9251551   0.41020202   -4.2843655    2.3592104      8192000 
   33000    1.5732958   -4.2838377   -4.2838377   -1.9238946   0.42735738   -4.2838377    2.3599431      8192000 
   34000    1.5744789   -4.2851866   -4.2851866   -1.9234688   0.59716807   -4.2851866    2.3617178      8192000 
   35000     1.564719   -4.2696202   -4.2696202   -1.9225422    1.0574615   -4.2696202    2.3470779      8192000 
   36000    1.5498369   -4.2458833   -4.2458833   -1.9211285    1.5543508   -4.2458833    2.3247548      8192000 
   37000    1.5342265   -4.2213585   -4.2213585   -1.9200193    2.0501605   -4.2213585    2.3013391      8192000 
   38000    1.5226294   -4.2029647   -4.2029647   -1.9190212     2.522875   -4.2029647    2.2839435      8192000 
   39000    1.5166243   -4.1927286   -4.1927286   -1.9177927    2.9568448   -4.1927286    2.2749359      8192000 
   40000    1.5211546   -4.1983194   -4.1983194   -1.9165881    3.0565579   -4.1983194    2.2817313      8192000 
   41000    1.5319664   -4.2136871   -4.2136871   -1.9157381     2.770774   -4.2136871     2.297949      8192000 
   42000    1.5412594   -4.2262875   -4.2262875    -1.914399    2.4633607   -4.2262875    2.3118885      8192000 
   43000    1.5454921   -4.2313604   -4.2313604   -1.9131228    2.1464399   -4.2313604    2.3182376      8192000 
   44000    1.5439237   -4.2276381   -4.2276381   -1.9117531    1.8703236   -4.2276381     2.315885      8192000 
   45000     1.532765   -4.2092786   -4.2092786   -1.9101316    1.6380895   -4.2092786     2.299147      8192000 
   46000     1.511022   -4.1753207   -4.1753207   -1.9087883     1.419437   -4.1753207    2.2665324      8192000 
   47000    1.4819563   -4.1304713   -4.1304713   -1.9075374    1.2137154   -4.1304713    2.2229339      8192000 
   48000    1.4537619   -4.0871473   -4.0871473    -1.906505    1.0277379   -4.0871473    2.1806423      8192000 
   49000    1.4236702   -4.0409746   -4.0409746   -1.9054698   0.85594555   -4.0409746    2.1355048      8192000 
   50000    1.3915798   -3.9919256   -3.9919256   -1.9045564   0.70856235   -3.9919256    2.0873692      8192000 
   51000    1.3593936    -3.942688    -3.942688   -1.9035981   0.59331311    -3.942688    2.0390898      8192000 
   52000     1.328826    -3.896123    -3.896123   -1.9028845   0.50387306    -3.896123    1.9932385      8192000 
   53000    1.3010887   -3.8533836   -3.8533836    -1.901751   0.45439158   -3.8533836    1.9516326      8192000 
   54000    1.2798748   -3.8206178   -3.8206178    -1.900806   0.46293936   -3.8206178    1.9198118      8192000 
   55000    1.2636464   -3.7956192   -3.7956192   -1.9001501   0.52099219   -3.7956192    1.8954692      8192000 
   56000    1.2504759   -3.7748252   -3.7748252   -1.8991117   0.50122271   -3.7748252    1.8757134      8192000 
   57000    1.2349877   -3.7506921   -3.7506921    -1.898211   0.43655917   -3.7506921    1.8524811      8192000 
   58000    1.2221105   -3.7304553   -3.7304553   -1.8972899   0.38102778   -3.7304553    1.8331653      8192000 
   59000    1.2114561   -3.7137752   -3.7137752   -1.8965914   0.34671349   -3.7137752    1.8171837      8192000 
   60000    1.2030299   -3.7004629   -3.7004629   -1.8959184   0.32842957   -3.7004629    1.8045444      8192000 
   61000    1.1962354   -3.6891504   -3.6891504   -1.8947978   0.31855244   -3.6891504    1.7943526      8192000 
   62000    1.1911597   -3.6808497   -3.6808497   -1.8941106   0.32550289   -3.6808497    1.7867392      8192000 
   63000    1.1876604   -3.6745046   -3.6745046   -1.8930145   0.33583233   -3.6745046    1.7814902      8192000 
   64000    1.1849745   -3.6697792   -3.6697792   -1.8923179   0.34898522   -3.6697792    1.7774612      8192000 
   65000    1.1806552    -3.662504    -3.662504   -1.8915216   0.36131618    -3.662504    1.7709824      8192000 
   66000    1.1759646   -3.6545114   -3.6545114    -1.890565   0.36311872   -3.6545114    1.7639464      8192000 
   67000    1.1706809   -3.6458689   -3.6458689    -1.889848   0.36386583   -3.6458689     1.756021      8192000 
   68000    1.1660162   -3.6383269   -3.6383269   -1.8893031   0.37150555   -3.6383269    1.7490238      8192000 
   69000    1.1630561    -3.633288    -3.633288   -1.8887044   0.38293382    -3.633288    1.7445836      8192000 
   70000    1.1613352   -3.6308123   -3.6308123   -1.8888098   0.39722066   -3.6308123    1.7420024      8192000 
   71000    1.1562397   -3.6238455   -3.6238455   -1.8894864   0.38664918   -3.6238455    1.7343591      8192000 
   72000     1.145359     -3.60947     -3.60947   -1.8914319   0.34383175     -3.60947    1.7180381      8192000 
   73000    1.1322492    -3.593629    -3.593629   -1.8952556   0.29054836    -3.593629    1.6983734      8192000 
   74000    1.1194801   -3.5809111   -3.5809111   -1.9016914   0.24451776   -3.5809111    1.6792197      8192000 
   75000    1.1074087   -3.5733622   -3.5733622   -1.9122494   0.21229345   -3.5733622    1.6611127      8192000 
   76000    1.0951421   -3.5704294   -3.5704294   -1.9277167   0.19101034   -3.5704294    1.6427127      8192000 
   77000    1.0835323    -3.574383    -3.574383    -1.949085   0.18609821    -3.574383     1.625298      8192000 
   78000    1.0712008   -3.5825236   -3.5825236   -1.9757228   0.19694641   -3.5825236    1.6068008      8192000 
   79000    1.0578076   -3.5913326   -3.5913326   -2.0046215   0.21072642   -3.5913326     1.586711      8192000 
   80000    1.0444348     -3.59967     -3.59967   -2.0330182   0.21938602     -3.59967    1.5666519      8192000 
   81000    1.0320952   -3.6058005   -3.6058005   -2.0576581   0.20823581   -3.6058005    1.5481424      8192000 
   82000    1.0209084   -3.6088523   -3.6088523   -2.0774901   0.18549542   -3.6088523    1.5313622      8192000 
   83000    1.0117326    -3.609721    -3.609721   -2.0921224   0.15860782    -3.609721    1.5175986      8192000 
   84000    1.0043017   -3.6080897   -3.6080897   -2.1016375   0.13478388   -3.6080897    1.5064522      8192000 
   85000   0.99814896   -3.6049967   -3.6049967   -2.1077736   0.11741494   -3.6049967    1.4972231      8192000 
   86000   0.99462045    -3.602585    -3.602585   -2.1106547    0.1045908    -3.602585    1.4919303      8192000 
   87000    0.9920841   -3.5998603   -3.5998603   -2.1117345  0.094701879   -3.5998603    1.4881258      8192000 
   88000   0.99013201   -3.5967046   -3.5967046    -2.111507  0.092485973   -3.5967046    1.4851976      8192000 
   89000   0.98983891    -3.594781    -3.594781    -2.110023  0.091575878    -3.594781     1.484758      8192000 
   90000   0.99080945   -3.5944391   -3.5944391   -2.1082253  0.095479373   -3.5944391    1.4862138      8192000 
   91000   0.99160758   -3.5939839   -3.5939839    -2.106573  0.098901705   -3.5939839     1.487411      8192000 
   92000   0.99269487   -3.5940587   -3.5940587   -2.1050168   0.10234225   -3.5940587    1.4890419      8192000 
   93000   0.99422623   -3.5943566   -3.5943566   -2.1030176    0.1121828   -3.5943566     1.491339      8192000 
   94000   0.99637684   -3.5957846   -3.5957846   -2.1012197   0.11818428   -3.5957846    1.4945649      8192000 
   95000   0.99776391   -3.5962521   -3.5962521   -2.0996066   0.11973665   -3.5962521    1.4966455      8192000 
   96000   0.99892202   -3.5964845   -3.5964845   -2.0981018   0.12370552   -3.5964845    1.4983827      8192000 
   97000   0.99905455   -3.5950373   -3.5950373   -2.0964559   0.12680716   -3.5950373    1.4985815      8192000 
   98000   0.99915601   -3.5936994   -3.5936994   -2.0949657   0.12445348   -3.5936994    1.4987336      8192000 
   99000   0.99882818   -3.5920768   -3.5920768    -2.093835   0.12553585   -3.5920768    1.4982419      8192000 
  100000   0.99868099   -3.5906537   -3.5906537   -2.0926325   0.12334001   -3.5906537    1.4980211      8192000 
  101000   0.99765131   -3.5884169   -3.5884169   -2.0919403   0.12123654   -3.5884169    1.4964766      8192000 
  102000   0.99621607   -3.5853893   -3.5853893   -2.0910655   0.11829189   -3.5853893    1.4943237      8192000 
  103000   0.99457345   -3.5820148   -3.5820148    -2.090155   0.11759905   -3.5820148    1.4918598      8192000 
  104000   0.99404371    -3.580415    -3.580415   -2.0893498   0.11337777    -3.580415    1.4910652      8192000 
  105000   0.99283071   -3.5777568   -3.5777568   -2.0885111   0.11161167   -3.5777568    1.4892457      8192000 
  106000    0.9915934   -3.5752382   -3.5752382   -2.0878485   0.10889154   -3.5752382    1.4873897      8192000 
  107000   0.99091522   -3.5737072   -3.5737072   -2.0873347   0.10621597   -3.5737072    1.4863725      8192000 
  108000   0.99013257   -3.5718632   -3.5718632   -2.0866647   0.10757358   -3.5718632    1.4851985      8192000 
  109000   0.99042104   -3.5717935   -3.5717935   -2.0861623   0.10766493   -3.5717935    1.4856312      8192000 
  110000   0.99063233   -3.5718796   -3.5718796   -2.0859315   0.11264446   -3.5718796    1.4859481      8192000 
  111000   0.99125874   -3.5726279   -3.5726279   -2.0857402   0.11360076   -3.5726279    1.4868877      8192000 
  112000   0.99174411   -3.5729766   -3.5729766   -2.0853608   0.11660511   -3.5729766    1.4876158      8192000 
  113000   0.99211706   -3.5733439   -3.5733439   -2.0851687   0.12099502   -3.5733439    1.4881752      8192000 
  114000   0.99267099   -3.5738427   -3.5738427   -2.0848366   0.12205053   -3.5738427    1.4890061      8192000 
  115000   0.99341541   -3.5745782   -3.5745782   -2.0844555   0.12774858   -3.5745782    1.4901227      8192000 
  116000    0.9936453   -3.5741399   -3.5741399   -2.0836723   0.13010315   -3.5741399    1.4904676      8192000 
  117000   0.99423289   -3.5742828   -3.5742828   -2.0829338    0.1343071   -3.5742828     1.491349      8192000 
  118000   0.99424092   -3.5738115   -3.5738115   -2.0824505   0.13327566   -3.5738115     1.491361      8192000 
  119000    0.9941714   -3.5730365   -3.5730365   -2.0817798   0.13325597   -3.5730365    1.4912567      8192000 
  120000   0.99420437   -3.5725532   -3.5725532    -2.081247   0.13224246   -3.5725532    1.4913062      8192000 
  121000   0.99348322   -3.5709527   -3.5709527   -2.0807282   0.13447364   -3.5709527    1.4902245      8192000 
  122000   0.99348617   -3.5701662   -3.5701662   -2.0799373    0.1323165   -3.5701662    1.4902289      8192000 
  123000   0.99296591   -3.5688123   -3.5688123   -2.0793638   0.12892752   -3.5688123    1.4894485      8192000 
  124000   0.99173108   -3.5665946   -3.5665946   -2.0789984   0.12904968   -3.5665946    1.4875963      8192000 
  125000   0.99198719   -3.5664045   -3.5664045   -2.0784241   0.12624992   -3.5664045    1.4879804      8192000 
  126000   0.99202161   -3.5656528   -3.5656528   -2.0776207   0.12704784   -3.5656528     1.488032      8192000 
  127000   0.99149056   -3.5645466   -3.5645466   -2.0773111   0.12636996   -3.5645466    1.4872355      8192000 
  128000   0.99153591   -3.5644426   -3.5644426   -2.0771391   0.12239638   -3.5644426    1.4873035      8192000 
  129000   0.99106089   -3.5630826   -3.5630826   -2.0764916   0.12508614   -3.5630826     1.486591      8192000 
  130000   0.99118292   -3.5628594   -3.5628594   -2.0760853   0.12594777   -3.5628594     1.486774      8192000 
  131000   0.99073694   -3.5620201   -3.5620201   -2.0759151   0.12564589   -3.5620201     1.486105      8192000 
  132000   0.99093414   -3.5621319   -3.5621319   -2.0757311   0.12733748   -3.5621319    1.4864008      8192000 
  133000   0.99125045   -3.5623273   -3.5623273    -2.075452   0.12561464   -3.5623273    1.4868753      8192000 
  134000   0.99095393   -3.5615472   -3.5615472   -2.0751167   0.12816634   -3.5615472    1.4864305      8192000 
  135000   0.99079616    -3.561204    -3.561204   -2.0750101   0.12755496    -3.561204    1.4861939      8192000 
  136000   0.99026468   -3.5600371   -3.5600371   -2.0746404   0.12950278   -3.5600371    1.4853967      8192000 
  137000    0.9899769     -3.55932     -3.55932    -2.074355   0.12545141     -3.55932     1.484965      8192000 
  138000   0.98927736   -3.5577146   -3.5577146    -2.073799   0.12366675   -3.5577146    1.4839157      8192000 
  139000   0.98877176   -3.5565653   -3.5565653    -2.073408   0.12166925   -3.5565653    1.4831573      8192000 
  140000    0.9879778   -3.5552311   -3.5552311   -2.0732648   0.12105117   -3.5552311    1.4819663      8192000 
  141000   0.98728325   -3.5540509   -3.5540509   -2.0731264   0.11792818   -3.5540509    1.4809245      8192000 
  142000   0.98628733   -3.5524336   -3.5524336   -2.0730029   0.11518359   -3.5524336    1.4794306      8192000 
  143000   0.98541093   -3.5509287   -3.5509287   -2.0728126   0.11199821   -3.5509287     1.478116      8192000 
  144000   0.98487904   -3.5499095   -3.5499095   -2.0725913     0.109988   -3.5499095    1.4773182      8192000 
  145000   0.98375709   -3.5476892   -3.5476892    -2.072054   0.10879431   -3.5476892    1.4756353      8192000 
  146000   0.98256179   -3.5457261   -3.5457261   -2.0718838   0.10555921   -3.5457261    1.4738423      8192000 
  147000   0.98148108   -3.5436472   -3.5436472   -2.0714259   0.10401359   -3.5436472    1.4722213      8192000 
  148000   0.98085114   -3.5425981   -3.5425981   -2.0713218  0.098193954   -3.5425981    1.4712763      8192000 
  149000   0.97964474   -3.5409897   -3.5409897   -2.0715229  0.092111445   -3.5409897    1.4694668      8192000 
  150000   0.97833858    -3.538823    -3.538823   -2.0713155  0.092465213    -3.538823    1.4675075      8192000 
  151000    0.9776802   -3.5378857   -3.5378857   -2.0713658  0.088125452   -3.5378857    1.4665199      8192000 
  152000   0.97614334   -3.5355839   -3.5355839   -2.0713692  0.087785352   -3.5355839    1.4642147      8192000 
  153000   0.97596545   -3.5354608   -3.5354608    -2.071513  0.081953595   -3.5354608    1.4639478      8192000 
  154000   0.97534524   -3.5347326   -3.5347326   -2.0717151  0.081433532   -3.5347326    1.4630175      8192000 
  155000   0.97452091   -3.5336877   -3.5336877   -2.0719067  0.081748124   -3.5336877     1.461781      8192000 
  156000   0.97420812    -3.533679    -3.533679   -2.0723671  0.080120479    -3.533679    1.4613118      8192000 
  157000   0.97379442   -3.5336315   -3.5336315   -2.0729402  0.079846062   -3.5336315    1.4606913      8192000 
  158000    0.9735846   -3.5335962   -3.5335962   -2.0732197  0.080350515   -3.5335962    1.4603765      8192000 
  159000   0.97267876   -3.5329657   -3.5329657   -2.0739479  0.078349706   -3.5329657    1.4590178      8192000 
  160000   0.97269001   -3.5334681   -3.5334681   -2.0744335  0.079055005   -3.5334681    1.4590347      8192000 
  161000   0.97259512   -3.5336474   -3.5336474    -2.074755  0.082491295   -3.5336474    1.4588923      8192000 
  162000   0.97264065   -3.5342759   -3.5342759   -2.0753153  0.081614813   -3.5342759    1.4589606      8192000 
  163000   0.97254003   -3.5346495   -3.5346495   -2.0758398   0.08299425   -3.5346495    1.4588097      8192000 
  164000   0.97246225   -3.5349635   -3.5349635   -2.0762704  0.084465627   -3.5349635     1.458693      8192000 
  165000   0.97302013   -3.5359931   -3.5359931   -2.0764633  0.085697463   -3.5359931    1.4595298      8192000 
  166000   0.97282172   -3.5356596   -3.5356596   -2.0764273  0.085068739   -3.5356596    1.4592322      8192000 
  167000   0.97290512    -3.536001    -3.536001   -2.0766437  0.088412335    -3.536001    1.4593573      8192000 
  168000   0.97257795   -3.5357385   -3.5357385   -2.0768719   0.08765911   -3.5357385    1.4588666      8192000 
  169000   0.97227612   -3.5353449   -3.5353449   -2.0769311  0.088749707   -3.5353449    1.4584138      8192000 
  170000   0.97252676   -3.5354475   -3.5354475   -2.0766577  0.085680467   -3.5354475    1.4587898      8192000 
  171000   0.97235901   -3.5352438   -3.5352438   -2.0767057  0.085403525   -3.5352438    1.4585382      8192000 
  172000   0.97140883   -3.5337169   -3.5337169    -2.076604  0.085780478   -3.5337169    1.4571129      8192000 
  173000   0.97136681   -3.5334819   -3.5334819    -2.076432  0.081638308   -3.5334819    1.4570499      8192000 
  174000   0.97067016   -3.5323206   -3.5323206   -2.0763157  0.081920791   -3.5323206    1.4560049      8192000 
  175000   0.97005822   -3.5310087   -3.5310087   -2.0759218  0.079832275   -3.5310087     1.455087      8192000 
  176000   0.96950725   -3.5299562   -3.5299562   -2.0756957  0.077604412   -3.5299562    1.4542605      8192000 
  177000   0.96916658   -3.5293452   -3.5293452   -2.0755957  0.076930443   -3.5293452    1.4537495      8192000 
  178000   0.96802079   -3.5272429   -3.5272429    -2.075212  0.075863107   -3.5272429    1.4520308      8192000 
  179000   0.96737223   -3.5258093   -3.5258093   -2.0747513  0.074988076   -3.5258093     1.451058      8192000 
  180000   0.96690582   -3.5247649   -3.5247649   -2.0744065  0.072865151   -3.5247649    1.4503584      8192000 
  181000   0.96631636   -3.5237017   -3.5237017   -2.0742275  0.072390002   -3.5237017    1.4494742      8192000 
  182000   0.96635385   -3.5232049   -3.5232049   -2.0736745  0.070930767   -3.5232049    1.4495304      8192000 
  183000   0.96587227   -3.5219973   -3.5219973   -2.0731893  0.070633764   -3.5219973     1.448808      8192000 
  184000   0.96552838   -3.5209652   -3.5209652    -2.072673  0.070662906   -3.5209652    1.4482922      8192000 
  185000   0.96494953    -3.519758    -3.519758    -2.072334  0.071571849    -3.519758    1.4474239      8192000 
  186000   0.96474223   -3.5192961   -3.5192961   -2.0721831  0.069220643   -3.5192961     1.447113      8192000 
  187000   0.96429716   -3.5180512   -3.5180512   -2.0716058  0.070116401   -3.5180512    1.4464454      8192000 
  188000   0.96416722   -3.5176536   -3.5176536   -2.0714031  0.068001178   -3.5176536    1.4462505      8192000 
  189000    0.9637377   -3.5164473   -3.5164473   -2.0708411  0.070063604   -3.5164473    1.4456062      8192000 
  190000   0.96375329   -3.5158604   -3.5158604   -2.0702309  0.069717282   -3.5158604    1.4456296      8192000 
  191000   0.96399808   -3.5156859   -3.5156859   -2.0696892  0.070201054   -3.5156859    1.4459968      8192000 
  192000   0.96381564   -3.5146697   -3.5146697   -2.0689467  0.069858507   -3.5146697    1.4457231      8192000 
  193000   0.96383807   -3.5144352   -3.5144352   -2.0686785  0.071521873   -3.5144352    1.4457568      8192000 
  194000   0.96363787   -3.5137646   -3.5137646   -2.0683082  0.070241376   -3.5137646    1.4454564      8192000 
  195000    0.9635212   -3.5129223   -3.5129223   -2.0676409  0.070680069   -3.5129223    1.4452814      8192000 
  196000   0.96321697   -3.5124017   -3.5124017   -2.0675766  0.070728657   -3.5124017    1.4448251      8192000 
  197000    0.9634439   -3.5122551   -3.5122551   -2.0670896  0.069470248   -3.5122551    1.4451655      8192000 
  198000   0.96229965   -3.5102396   -3.5102396   -2.0667905  0.069446276   -3.5102396    1.4434491      8192000 
  199000   0.96228281   -3.5097332   -3.5097332   -2.0663093  0.066685258   -3.5097332    1.4434239      8192000 
  200000   0.96242247    -3.509247    -3.509247   -2.0656137   0.06735454    -3.509247    1.4436334      8192000 
  201000   0.96192276   -3.5082512   -3.5082512   -2.0653675  0.068628121   -3.5082512    1.4428838      8192000 
  202000   0.96107066    -3.506676    -3.506676   -2.0650704  0.066515858    -3.506676    1.4416056      8192000 
  203000   0.96073211   -3.5059551   -3.5059551   -2.0648573  0.065616332   -3.5059551    1.4410978      8192000 
  204000   0.96074232   -3.5058714   -3.5058714   -2.0647583  0.063725807   -3.5058714    1.4411131      8192000 
  205000   0.96078868   -3.5057308   -3.5057308   -2.0645482  0.062984595   -3.5057308    1.4411827      8192000 
  206000   0.96045492   -3.5051327   -3.5051327   -2.0644506  0.063459424   -3.5051327     1.440682      8192000 
  207000   0.96037856   -3.5047698   -3.5047698   -2.0642023  0.062785276   -3.5047698    1.4405675      8192000 
  208000   0.96010185   -3.5040123   -3.5040123   -2.0638599  0.063025629   -3.5040123    1.4401524      8192000 
  209000   0.95961864   -3.5031631   -3.5031631   -2.0637355  0.061367223   -3.5031631    1.4394276      8192000 
  210000   0.95960897   -3.5029579   -3.5029579   -2.0635448  0.059357489   -3.5029579    1.4394131      8192000 
  211000    0.9591977   -3.5020565   -3.5020565   -2.0632603  0.064816939   -3.5020565    1.4387962      8192000 
  212000   0.95948912   -3.5025345   -3.5025345   -2.0633012  0.062290498   -3.5025345    1.4392333      8192000 
  213000   0.95969495   -3.5025461   -3.5025461    -2.063004   0.06164725   -3.5025461    1.4395421      8192000 
  214000   0.95969262   -3.5022584   -3.5022584   -2.0627199  0.061488717   -3.5022584    1.4395386      8192000 
  215000   0.95936741   -3.5017478   -3.5017478    -2.062697  0.060731432   -3.5017478    1.4390508      8192000 
  216000   0.95961282   -3.5017126   -3.5017126   -2.0622938  0.063255379   -3.5017126    1.4394189      8192000 
  217000   0.95922826     -3.50089     -3.50089    -2.062048  0.062833836     -3.50089     1.438842      8192000 
  218000   0.95915229   -3.5009001   -3.5009001    -2.062172  0.063575433   -3.5009001    1.4387281      8192000 
  219000   0.95929984   -3.5011045   -3.5011045   -2.0621551  0.062249269   -3.5011045    1.4389494      8192000 
  220000   0.95892021   -3.5004733   -3.5004733   -2.0620933  0.061491215   -3.5004733      1.43838      8192000 
  221000    0.9590065   -3.5003615   -3.5003615   -2.0618521   0.06190938   -3.5003615    1.4385094      8192000 
  222000   0.95891614   -3.4999284   -3.4999284   -2.0615545  0.060966549   -3.4999284    1.4383739      8192000 
  223000   0.95923543   -3.5002565   -3.5002565   -2.0614037  0.061314088   -3.5002565    1.4388528      8192000 
  224000   0.95895123   -3.4997693   -3.4997693   -2.0613428  0.062597579   -3.4997693    1.4384265      8192000 
  225000   0.95862412   -3.4993704   -3.4993704   -2.0614346   0.06193631   -3.4993704    1.4379358      8192000 
  226000   0.95873377   -3.4992662   -3.4992662   -2.0611659  0.060689188   -3.4992662    1.4381003      8192000 
  227000   0.95860049   -3.4991338   -3.4991338   -2.0612334  0.058173899   -3.4991338    1.4379004      8192000 
  228000   0.95835167   -3.4987256   -3.4987256   -2.0611984  0.061070369   -3.4987256    1.4375271      8192000 
  229000   0.95780483   -3.4978311   -3.4978311   -2.0611242  0.059708344   -3.4978311    1.4367069      8192000 
  230000   0.95803663   -3.4982006   -3.4982006    -2.061146  0.060252748   -3.4982006    1.4370546      8192000 
  231000   0.95762754   -3.4974391   -3.4974391   -2.0609982   0.05878279   -3.4974391     1.436441      8192000 
  232000   0.95815918   -3.4981775   -3.4981775   -2.0609391  0.059627237   -3.4981775    1.4372384      8192000 
  233000    0.9575253   -3.4970156   -3.4970156    -2.060728    0.0588472   -3.4970156    1.4362876      8192000 
  234000   0.95747142   -3.4968178   -3.4968178    -2.060611  0.061493867   -3.4968178    1.4362068      8192000 
  235000   0.95784212   -3.4973525   -3.4973525   -2.0605897   0.05885679   -3.4973525    1.4367628      8192000 
  236000   0.95744605   -3.4965458   -3.4965458   -2.0603771  0.060680622   -3.4965458    1.4361687      8192000 
  237000   0.95735671   -3.4962444   -3.4962444   -2.0602097  0.059385902   -3.4962444    1.4360347      8192000 
  238000   0.95764471   -3.4965457   -3.4965457    -2.060079  0.055922263   -3.4965457    1.4364667      8192000 
  239000   0.95758572   -3.4960519   -3.4960519   -2.0596736  0.059566802   -3.4960519    1.4363782      8192000 
  240000   0.95824146   -3.4968078   -3.4968078    -2.059446  0.059160041   -3.4968078    1.4373618      8192000 
  241000   0.95793051   -3.4962941   -3.4962941   -2.0593987  0.061342918   -3.4962941    1.4368954      8192000 
  242000   0.95785898   -3.4960547   -3.4960547   -2.0592665  0.059509602   -3.4960547    1.4367881      8192000 
  243000   0.95824212   -3.4967602   -3.4967602   -2.0593974  0.061922029   -3.4967602    1.4373628      8192000 
  244000   0.95838155   -3.4968466   -3.4968466   -2.0592746  0.060907991   -3.4968466     1.437572      8192000 
  245000   0.95836906    -3.496957    -3.496957   -2.0594038  0.059753167    -3.496957    1.4375532      8192000 
  246000   0.95841273   -3.4968828   -3.4968828   -2.0592641  0.061516826   -3.4968828    1.4376187      8192000 
  247000   0.95869389    -3.497271    -3.497271   -2.0592305  0.061919141    -3.497271    1.4380405      8192000 
  248000   0.95907712   -3.4975891   -3.4975891   -2.0589737  0.060915523   -3.4975891    1.4386153      8192000 
  249000   0.95912684   -3.4977419   -3.4977419    -2.059052  0.060754919   -3.4977419    1.4386899      8192000 
  250000   0.95918115   -3.4979088   -3.4979088   -2.0591374  0.062260542   -3.4979088    1.4387714      8192000 
  251000   0.95914929    -3.497766    -3.497766   -2.0590424  0.062311862    -3.497766    1.4387236      8192000 
  252000   0.95861507    -3.496939    -3.496939   -2.0590168  0.065268843    -3.496939    1.4379222      8192000 
  253000   0.95962454   -3.4984251   -3.4984251   -2.0589886    0.0639338   -3.4984251    1.4394365      8192000 
  254000   0.96000253   -3.4991048   -3.4991048   -2.0591014  0.064531734   -3.4991048    1.4400034      8192000 
  255000    0.9600313   -3.4990928   -3.4990928   -2.0590462  0.068646909   -3.4990928    1.4400466      8192000 
  256000   0.96088661    -3.500249    -3.500249   -2.0589194  0.068162948    -3.500249    1.4413296      8192000 
  257000   0.96198859   -3.5020285   -3.5020285   -2.0590459   0.06933215   -3.5020285    1.4429825      8192000 
  258000   0.96249206   -3.5026929   -3.5026929   -2.0589552  0.070637561   -3.5026929    1.4437377      8192000 
  259000   0.96365347   -3.5042542   -3.5042542   -2.0587744  0.074448218   -3.5042542    1.4454798      8192000 
  260000   0.96505084   -3.5061551   -3.5061551   -2.0585792  0.080735383   -3.5061551    1.4475759      8192000 
  261000   0.96598113   -3.5073634   -3.5073634   -2.0583921  0.087894038   -3.5073634    1.4489713      8192000 
  262000   0.96774148   -3.5100627   -3.5100627   -2.0584508  0.092247038   -3.5100627    1.4516119      8192000 
  263000   0.96988186   -3.5134864   -3.5134864    -2.058664  0.098587268   -3.5134864    1.4548224      8192000 
  264000    0.9715929   -3.5160363   -3.5160363   -2.0586473   0.10808737   -3.5160363     1.457389      8192000 
  265000   0.97363638   -3.5186756   -3.5186756   -2.0582214   0.11597838   -3.5186756    1.4604542      8192000 
  266000   0.97559247   -3.5219644   -3.5219644   -2.0585761   0.12526847   -3.5219644    1.4633883      8192000 
  267000   0.97807192   -3.5254271   -3.5254271   -2.0583196   0.13259261   -3.5254271    1.4671075      8192000 
  268000   0.98036315   -3.5288142   -3.5288142   -2.0582699   0.13965194   -3.5288142    1.4705444      8192000 
  269000    0.9819071   -3.5310878   -3.5310878   -2.0582276   0.14674918   -3.5310878    1.4728603      8192000 
  270000   0.98408192   -3.5338779   -3.5338779   -2.0577554   0.15071832   -3.5338779    1.4761225      8192000 
  271000   0.98512163   -3.5351289   -3.5351289   -2.0574468   0.15856382   -3.5351289    1.4776821      8192000 
  272000   0.98655056   -3.5371535   -3.5371535    -2.057328   0.16184842   -3.5371535    1.4798255      8192000 
  273000   0.98785793   -3.5390823   -3.5390823   -2.0572958   0.16196614   -3.5390823    1.4817865      8192000 
  274000   0.98813689   -3.5392951   -3.5392951   -2.0570901     0.164035   -3.5392951     1.482205      8192000 
  275000   0.98836418   -3.5395937   -3.5395937   -2.0570478   0.16179396   -3.5395937    1.4825459      8192000 
  276000   0.98819795   -3.5394529   -3.5394529   -2.0571563   0.15902664   -3.5394529    1.4822966      8192000 
  277000   0.98782422   -3.5386772   -3.5386772   -2.0569412   0.15465343   -3.5386772     1.481736      8192000 
  278000   0.98704944   -3.5374608   -3.5374608    -2.056887   0.15215166   -3.5374608    1.4805738      8192000 
  279000     0.985893   -3.5355371   -3.5355371   -2.0566979   0.14865281   -3.5355371    1.4788391      8192000 
  280000   0.98454835    -3.533495    -3.533495   -2.0566729   0.14164982    -3.533495    1.4768222      8192000 
  281000   0.98351782   -3.5320373   -3.5320373    -2.056761   0.13581355   -3.5320373    1.4752764      8192000 
  282000   0.98193491   -3.5294477   -3.5294477   -2.0565457   0.13046413   -3.5294477     1.472902      8192000 
  283000   0.98030973   -3.5268569   -3.5268569   -2.0563927   0.12415979   -3.5268569    1.4704642      8192000 
  284000   0.97894729   -3.5248835   -3.5248835   -2.0564629   0.11830114   -3.5248835    1.4684206      8192000 
  285000   0.97705761   -3.5218415   -3.5218415   -2.0562555   0.11446195   -3.5218415     1.465586      8192000 
  286000   0.97563478   -3.5196881   -3.5196881   -2.0562363   0.10975177   -3.5196881    1.4634518      8192000 
  287000    0.9745267   -3.5177915   -3.5177915   -2.0560018   0.10288827   -3.5177915    1.4617897      8192000 
  288000     0.973538   -3.5160067   -3.5160067   -2.0557001   0.10084957   -3.5160067    1.4603066      8192000 
  289000   0.97188667   -3.5137129   -3.5137129   -2.0558833   0.09532374   -3.5137129    1.4578296      8192000 
  290000   0.97091826   -3.5122755   -3.5122755   -2.0558984  0.092443919   -3.5122755     1.456377      8192000 
  291000   0.97033606   -3.5113837   -3.5113837   -2.0558799  0.086220742   -3.5113837    1.4555037      8192000 
  292000   0.96931669   -3.5097042   -3.5097042   -2.0557295  0.082378124   -3.5097042    1.4539747      8192000 
  293000   0.96782014   -3.5074957   -3.5074957   -2.0557658  0.081143681   -3.5074957    1.4517299      8192000 
  294000   0.96674837   -3.5058248   -3.5058248   -2.0557026  0.076995386   -3.5058248    1.4501222      8192000 
  295000   0.96569566   -3.5040671   -3.5040671   -2.0555239  0.074655136   -3.5040671    1.4485431      8192000 
  296000   0.96507444   -3.5032155   -3.5032155   -2.0556042  0.069782873   -3.5032155    1.4476113      8192000 
  297000   0.96399609   -3.5018073   -3.5018073   -2.0558135   0.06797334   -3.5018073    1.4459938      8192000 
  298000   0.96334784   -3.5008866   -3.5008866   -2.0558652  0.066648547   -3.5008866    1.4450214      8192000 
  299000   0.96156193   -3.4981977   -3.4981977   -2.0558551  0.062958239   -3.4981977    1.4423425      8192000 
  300000   0.96075222   -3.4967272   -3.4967272   -2.0555992  0.062376715   -3.4967272     1.441128      8192000 
  301000   0.96046825   -3.4964819   -3.4964819   -2.0557799  0.060778509   -3.4964819     1.440702      8192000 
  302000   0.95966454   -3.4949115   -3.4949115    -2.055415  0.057401989   -3.4949115    1.4394965      8192000 
  303000   0.95974579   -3.4949489   -3.4949489   -2.0553305  0.058183647   -3.4949489    1.4396183      8192000 
  304000    0.9594407   -3.4946239   -3.4946239   -2.0554633  0.056184421   -3.4946239    1.4391607      8192000 
  305000   0.95863824   -3.4935354   -3.4935354   -2.0555784    0.0545285   -3.4935354     1.437957      8192000 
  306000   0.95846363   -3.4933138   -3.4933138   -2.0556188  0.055347806   -3.4933138    1.4376951      8192000 
  307000   0.95848253   -3.4932144   -3.4932144    -2.055491  0.054566339   -3.4932144    1.4377234      8192000 
  308000   0.95833476   -3.4929176   -3.4929176   -2.0554158  0.054951469   -3.4929176    1.4375018      8192000 
  309000   0.95807939   -3.4923741   -3.4923741   -2.0552553  0.055288472   -3.4923741    1.4371187      8192000 
  310000   0.95838106    -3.492599    -3.492599   -2.0550278  0.054751223    -3.492599    1.4375712      8192000 
  311000   0.95779339   -3.4917959   -3.4917959   -2.0551061  0.057319373   -3.4917959    1.4366897      8192000 
  312000   0.95830942   -3.4926985   -3.4926985   -2.0552347  0.054213628   -3.4926985    1.4374638      8192000 
  313000   0.95847053   -3.4930054   -3.4930054   -2.0552999  0.056975601   -3.4930054    1.4377054      8192000 
  314000    0.9588236   -3.4934932   -3.4934932   -2.0552581  0.056134727   -3.4934932     1.438235      8192000 
  315000    0.9594434   -3.4942364   -3.4942364   -2.0550717  0.057812609   -3.4942364    1.4391647      8192000 
  316000   0.95903653   -3.4936923   -3.4936923   -2.0551378  0.057390035   -3.4936923    1.4385544      8192000 
  317000   0.95911275   -3.4940012   -3.4940012   -2.0553324  0.058907586   -3.4940012    1.4386688      8192000 
  318000   0.95912879   -3.4941299   -3.4941299   -2.0554371  0.058794388   -3.4941299    1.4386928      8192000 
  319000   0.95938204   -3.4944093   -3.4944093   -2.0553366  0.059387976   -3.4944093    1.4390727      8192000 
  320000   0.96005302   -3.4955485   -3.4955485   -2.0554693  0.059417352   -3.4955485    1.4400792      8192000 
  321000   0.95964377   -3.4948706   -3.4948706   -2.0554053  0.059720666   -3.4948706    1.4394653      8192000 
  322000    0.9602448    -3.496045    -3.496045   -2.0556781  0.059755906    -3.496045    1.4403668      8192000 
  323000   0.95949558   -3.4951493   -3.4951493   -2.0559063  0.058591697   -3.4951493     1.439243      8192000 
  324000   0.96028054   -3.4962252   -3.4962252   -2.0558048  0.059071956   -3.4962252    1.4404205      8192000 
  325000   0.95979828   -3.4958979   -3.4958979   -2.0562008  0.059738437   -3.4958979    1.4396971      8192000 
  326000   0.96056785   -3.4967827   -3.4967827   -2.0559313  0.057915947   -3.4967827    1.4408514      8192000 
  327000   0.96029423   -3.4963204   -3.4963204   -2.0558794  0.061626865   -3.4963204     1.440441      8192000 
  328000   0.96040652   -3.4966252   -3.4966252   -2.0560158  0.059455414   -3.4966252    1.4406094      8192000 
  329000   0.95984465   -3.4961482   -3.4961482   -2.0563815  0.058673091   -3.4961482    1.4397666      8192000 
  330000   0.96012592   -3.4968351   -3.4968351   -2.0566465   0.05688562   -3.4968351    1.4401885      8192000 
  331000   0.95970079   -3.4962999   -3.4962999    -2.056749  0.060155796   -3.4962999    1.4395508      8192000 
  332000   0.95962463   -3.4964218   -3.4964218   -2.0569852   0.05891337   -3.4964218    1.4394366      8192000 
  333000   0.96000397   -3.4970877   -3.4970877   -2.0570821  0.059534398   -3.4970877    1.4400056      8192000 
  334000   0.96019923   -3.4976828   -3.4976828   -2.0573843  0.057251768   -3.4976828    1.4402985      8192000 
  335000   0.95956714     -3.49719     -3.49719   -2.0578397  0.059677176     -3.49719    1.4393503      8192000 
  336000   0.96009687   -3.4983481   -3.4983481   -2.0582031  0.058322802   -3.4983481    1.4401449      8192000 
  337000      0.95987   -3.4981822   -3.4981822   -2.0583775  0.059145475   -3.4981822    1.4398046      8192000 
  338000   0.95985938   -3.4983113   -3.4983113   -2.0585225  0.057824114   -3.4983113    1.4397887      8192000 
  339000   0.95940311   -3.4983344   -3.4983344   -2.0592301  0.057749988   -3.4983344    1.4391043      8192000 
  340000   0.95939767   -3.4986784   -3.4986784   -2.0595823  0.059632376   -3.4986784    1.4390962      8192000 
  341000   0.95922617     -3.49881     -3.49881   -2.0599711  0.059514216     -3.49881    1.4388389      8192000 
  342000   0.95954631   -3.4993587   -3.4993587   -2.0600396  0.059556355   -3.4993587    1.4393191      8192000 
  343000   0.95941347   -3.4995228   -3.4995228   -2.0604029  0.060800477   -3.4995228    1.4391198      8192000 
  344000   0.95940455   -3.4999497   -3.4999497   -2.0608433  0.060105508   -3.4999497    1.4391065      8192000 
  345000    0.9599396   -3.5009239   -3.5009239   -2.0610148  0.060351122   -3.5009239     1.439909      8192000 
  346000   0.95952336   -3.5005566   -3.5005566   -2.0612719  0.060547022   -3.5005566    1.4392847      8192000 
  347000   0.95967506   -3.5010086   -3.5010086   -2.0614964  0.060685685   -3.5010086    1.4395122      8192000 
  348000   0.96008121   -3.5020935   -3.5020935   -2.0619721  0.059517463   -3.5020935    1.4401215      8192000 
  349000   0.96039997   -3.5028147   -3.5028147   -2.0622151  0.058518615   -3.5028147    1.4405996      8192000 
  350000   0.95948276   -3.5019225   -3.5019225   -2.0626987  0.060362391   -3.5019225    1.4392238      8192000 
  351000   0.96015073   -3.5029613   -3.5029613   -2.0627355  0.060859882   -3.5029613    1.4402257      8192000 
  352000   0.96019613   -3.5030464   -3.5030464   -2.0627526  0.059302328   -3.5030464    1.4402938      8192000 
  353000   0.95990641   -3.5027509   -3.5027509   -2.0628917  0.061570014   -3.5027509    1.4398593      8192000 
  354000   0.96058963   -3.5041491   -3.5041491    -2.063265  0.058992076   -3.5041491    1.4408841      8192000 
  355000   0.96019941   -3.5036955   -3.5036955   -2.0633968  0.059378927   -3.5036955    1.4402988      8192000 
  356000   0.96019495   -3.5037037   -3.5037037   -2.0634116  0.061377364   -3.5037037    1.4402921      8192000 
  357000   0.96011997   -3.5037051   -3.5037051   -2.0635255  0.061054126   -3.5037051    1.4401796      8192000 
  358000   0.96010705   -3.5038346   -3.5038346   -2.0636743  0.060817316   -3.5038346    1.4401602      8192000 
  359000   0.96008466   -3.5038369   -3.5038369   -2.0637103  0.061174855   -3.5038369    1.4401266      8192000 
  360000   0.95976275   -3.5034842   -3.5034842   -2.0638405  0.062055574   -3.5034842    1.4396438      8192000 
  361000   0.95977155   -3.5035845   -3.5035845   -2.0639275  0.060136883   -3.5035845     1.439657      8192000 
  362000    0.9594932    -3.503049    -3.503049   -2.0638096  0.060204476    -3.503049    1.4392395      8192000 
  363000   0.95927587   -3.5028216   -3.5028216   -2.0639082  0.060320454   -3.5028216    1.4389135      8192000 
  364000   0.95926675   -3.5027746   -3.5027746   -2.0638748  0.059002633   -3.5027746    1.4388998      8192000 
  365000   0.95943052   -3.5031372   -3.5031372   -2.0639918  0.059335498   -3.5031372    1.4391454      8192000 
  366000   0.95890927   -3.5024712   -3.5024712   -2.0641076  0.058534343   -3.5024712    1.4383636      8192000 
  367000   0.95876062   -3.5021619   -3.5021619   -2.0640213  0.059519101   -3.5021619    1.4381406      8192000 
  368000   0.95869192   -3.5021853   -3.5021853   -2.0641478  0.058622071   -3.5021853    1.4380375      8192000 
  369000   0.95923632   -3.5028647   -3.5028647   -2.0640105  0.058443705   -3.5028647    1.4388541      8192000 
  370000   0.95903513   -3.5024581   -3.5024581   -2.0639057   0.06005963   -3.5024581    1.4385523      8192000 
  371000   0.95897629   -3.5024577   -3.5024577   -2.0639937  0.058916578   -3.5024577    1.4384641      8192000 
  372000   0.95888096   -3.5025267   -3.5025267   -2.0642056  0.058117332   -3.5025267    1.4383211      8192000 
  373000   0.95883833   -3.5021894   -3.5021894   -2.0639323  0.057321879   -3.5021894    1.4382571      8192000 
  374000   0.95869066   -3.5019125   -3.5019125   -2.0638768  0.059192658   -3.5019125    1.4380356      8192000 
  375000   0.95898202   -3.5023431   -3.5023431   -2.0638704  0.060548328   -3.5023431    1.4384727      8192000 
  376000   0.95906655   -3.5025796   -3.5025796   -2.0639802  0.060572047   -3.5025796    1.4385995      8192000 
  377000   0.95957639   -3.5032151   -3.5032151   -2.0638509  0.058674947   -3.5032151    1.4393642      8192000 
  378000   0.95942445   -3.5031931   -3.5031931   -2.0640567  0.059464749   -3.5031931    1.4391363      8192000 
  379000   0.95963644   -3.5032181   -3.5032181   -2.0637638  0.059958748   -3.5032181    1.4394543      8192000 
  380000   0.95936692   -3.5028316   -3.5028316   -2.0637816  0.060130476   -3.5028316      1.43905      8192000 
  381000   0.95976814   -3.5034906   -3.5034906   -2.0638387  0.059314784   -3.5034906    1.4396519      8192000 
  382000   0.96001897   -3.5041233   -3.5041233   -2.0640952  0.059331419   -3.5041233    1.4400281      8192000 
  383000    0.9596413   -3.5035988   -3.5035988   -2.0641372  0.061569216   -3.5035988    1.4394616      8192000 
  384000   0.95985242   -3.5037771   -3.5037771   -2.0639989  0.060705168   -3.5037771    1.4397783      8192000 
  385000   0.95950919   -3.5033762   -3.5033762   -2.0641128  0.061053289   -3.5033762    1.4392634      8192000 
  386000   0.95960289    -3.503532    -3.503532    -2.064128  0.061157075    -3.503532     1.439404      8192000 
  387000   0.95983687   -3.5037367   -3.5037367   -2.0639817    0.0603728   -3.5037367     1.439755      8192000 
  388000   0.95984457   -3.5036568   -3.5036568   -2.0638903  0.060913335   -3.5036568    1.4397665      8192000 
  389000   0.96003159    -3.503993    -3.503993    -2.063946  0.060541567    -3.503993     1.440047      8192000 
  390000   0.95988195   -3.5034823   -3.5034823   -2.0636597  0.059682579   -3.5034823    1.4398226      8192000 
  391000   0.95998056   -3.5034905   -3.5034905     -2.06352   0.06176456   -3.5034905    1.4399705      8192000 
  392000   0.95993115   -3.5034713   -3.5034713    -2.063575  0.062013411   -3.5034713    1.4398964      8192000 
  393000   0.96028948   -3.5038995   -3.5038995   -2.0634657  0.058989189   -3.5038995    1.4404339      8192000 
  394000   0.96036869   -3.5041994   -3.5041994   -2.0636467  0.059472669   -3.5041994    1.4405527      8192000 
  395000   0.95988032   -3.5033173   -3.5033173   -2.0634971  0.062311572   -3.5033173    1.4398201      8192000 
  396000   0.95975253   -3.5033608   -3.5033608   -2.0637323  0.061150048   -3.5033608    1.4396284      8192000 
  397000    0.9599408    -3.503713    -3.503713   -2.0638021  0.060199921    -3.503713    1.4399108      8192000 
  398000   0.95955107    -3.503125    -3.503125   -2.0637988  0.060181772    -3.503125    1.4393262      8192000 
  399000   0.95971066   -3.5032808   -3.5032808   -2.0637151  0.060562491   -3.5032808    1.4395656      8192000 
  400000   0.95971532   -3.5030357   -3.5030357   -2.0634631  0.061345211   -3.5030357    1.4395726      8192000 
  401000   0.95949682    -3.502755    -3.502755   -2.0635102  0.060805877    -3.502755    1.4392449      8192000 
  402000   0.96007084   -3.5035065   -3.5035065   -2.0634006  0.059539201   -3.5035065    1.4401059      8192000 
  403000   0.95956583   -3.5027762   -3.5027762   -2.0634278  0.061155561   -3.5027762    1.4393484      8192000 
  404000   0.95958654   -3.5028315   -3.5028315   -2.0634521  0.059140078   -3.5028315    1.4393795      8192000 
  405000   0.95940522   -3.5023983   -3.5023983   -2.0632908  0.058840687   -3.5023983    1.4391075      8192000 
  406000   0.95886067   -3.5018282   -3.5018282   -2.0635376   0.05942184   -3.5018282    1.4382906      8192000 
  407000   0.95875973   -3.5018041   -3.5018041   -2.0636648  0.059189487   -3.5018041    1.4381392      8192000 
  408000   0.95911261   -3.5022239   -3.5022239   -2.0635554  0.058392373   -3.5022239    1.4386686      8192000 
  409000   0.95908688   -3.5020288   -3.5020288   -2.0633988  0.060788515   -3.5020288      1.43863      8192000 
  410000   0.95955871   -3.5023653   -3.5023653   -2.0630276  0.057258001   -3.5023653    1.4393377      8192000 
  411000   0.95955187   -3.5025224   -3.5025224    -2.063195  0.058221675   -3.5025224    1.4393274      8192000 
  412000   0.95942801   -3.5024954   -3.5024954   -2.0633537  0.057638856   -3.5024954    1.4391417      8192000 
  413000   0.95963758   -3.5027166   -3.5027166   -2.0632606  0.059086354   -3.5027166     1.439456      8192000 
  414000   0.95918855   -3.5021353   -3.5021353   -2.0633528    0.0584535   -3.5021353    1.4387825      8192000 
  415000   0.95940344   -3.5023996   -3.5023996   -2.0632948  0.059154558   -3.5023996    1.4391048      8192000 
  416000   0.95909461   -3.5019195   -3.5019195   -2.0632779   0.05988168   -3.5019195    1.4386416      8192000 
  417000   0.95987831   -3.5030894   -3.5030894   -2.0632723  0.057656456   -3.5030894    1.4398171      8192000 
  418000    0.9601253   -3.5033722   -3.5033722   -2.0631847   0.05909641   -3.5033722    1.4401876      8192000 
  419000   0.95969879   -3.5027505   -3.5027505   -2.0632027  0.062479119   -3.5027505    1.4395478      8192000 
  420000   0.96020629   -3.5036661   -3.5036661   -2.0633571  0.062395091   -3.5036661    1.4403091      8192000 
  421000   0.95987382   -3.5032478   -3.5032478   -2.0634375  0.061223084   -3.5032478    1.4398104      8192000 
  422000   0.96065562   -3.5039372   -3.5039372   -2.0629542  0.060632504   -3.5039372    1.4409831      8192000 
  423000   0.96065688   -3.5041513   -3.5041513   -2.0631663  0.060918438   -3.5041513     1.440985      8192000 
  424000   0.96038665    -3.503858    -3.503858   -2.0632784  0.060279365    -3.503858    1.4405796      8192000 
  425000   0.96040688   -3.5039207   -3.5039207   -2.0633108  0.063636887   -3.5039207      1.44061      8192000 
  426000   0.96066368    -3.504452    -3.504452   -2.0634568  0.062833504    -3.504452    1.4409952      8192000 
  427000   0.96137189   -3.5054291   -3.5054291   -2.0633716  0.063218937   -3.5054291    1.4420575      8192000 
  428000   0.96151549   -3.5053553   -3.5053553   -2.0630825  0.061967057   -3.5053553    1.4422729      8192000 
  429000   0.96108518   -3.5047766   -3.5047766   -2.0631492  0.064275186   -3.5047766    1.4416274      8192000 
  430000   0.96137111   -3.5047394   -3.5047394   -2.0626831   0.06261183   -3.5047394    1.4420563      8192000 
  431000   0.96088047   -3.5040234   -3.5040234    -2.062703  0.065722038   -3.5040234    1.4413204      8192000 
  432000   0.96152854   -3.5051851   -3.5051851   -2.0628926  0.063552512   -3.5051851    1.4422924      8192000 
  433000     0.961892   -3.5057648   -3.5057648   -2.0629272  0.064464881   -3.5057648    1.4428376      8192000 
  434000   0.96201522   -3.5060324   -3.5060324   -2.0630099  0.063810937   -3.5060324    1.4430225      8192000 
  435000   0.96179706   -3.5057302   -3.5057302   -2.0630349  0.065641868   -3.5057302    1.4426952      8192000 
  436000   0.96220829   -3.5063181   -3.5063181    -2.063006  0.065525238   -3.5063181    1.4433121      8192000 
  437000   0.96272476   -3.5070548   -3.5070548    -2.062968  0.066402408   -3.5070548    1.4440868      8192000 
  438000   0.96282683   -3.5073868   -3.5073868   -2.0631469  0.067636962   -3.5073868    1.4442399      8192000 
  439000   0.96259843   -3.5069179   -3.5069179   -2.0630206  0.070270239   -3.5069179    1.4438973      8192000 
  440000   0.96292242   -3.5072167   -3.5072167   -2.0628335   0.07175265   -3.5072167    1.4443833      8192000 
  441000   0.96348272   -3.5080773   -3.5080773   -2.0628536  0.071882919   -3.5080773    1.4452237      8192000 
  442000   0.96366246   -3.5085023   -3.5085023    -2.063009  0.072446489   -3.5085023    1.4454933      8192000 
  443000   0.96426045   -3.5094444   -3.5094444   -2.0630541  0.072501457   -3.5094444    1.4463903      8192000 
  444000   0.96471486   -3.5102093   -3.5102093   -2.0631373  0.075576577   -3.5102093    1.4470719      8192000 
  445000   0.96511125   -3.5106763   -3.5106763   -2.0630098  0.077522639   -3.5106763    1.4476665      8192000 
  446000   0.96587107   -3.5117687   -3.5117687   -2.0629624  0.079325204   -3.5117687    1.4488062      8192000 
  447000   0.96681792   -3.5132289   -3.5132289   -2.0630024  0.080891712   -3.5132289    1.4502265      8192000 
  448000   0.96772242   -3.5145848   -3.5145848   -2.0630015  0.081323348   -3.5145848    1.4515833      8192000 
  449000   0.96767363   -3.5147438   -3.5147438   -2.0632337  0.084046787   -3.5147438    1.4515101      8192000 
  450000    0.9686385   -3.5161629   -3.5161629   -2.0632055  0.086842749   -3.5161629    1.4529574      8192000 
  451000   0.96853835   -3.5159032   -3.5159032    -2.063096  0.089473543   -3.5159032    1.4528072      8192000 
  452000   0.96966178   -3.5171864   -3.5171864   -2.0626941  0.090367662   -3.5171864    1.4544923      8192000 
  453000   0.97032955   -3.5184453   -3.5184453   -2.0629513  0.090255253   -3.5184453     1.455494      8192000 
  454000   0.97032812   -3.5182674   -3.5182674   -2.0627756  0.094930627   -3.5182674    1.4554918      8192000 
  455000   0.97084554   -3.5191043   -3.5191043   -2.0628364  0.093755748   -3.5191043     1.456268      8192000 
  456000   0.97140209   -3.5200013   -3.5200013   -2.0628986  0.094486101   -3.5200013    1.4571028      8192000 
  457000   0.97172595   -3.5204349   -3.5204349   -2.0628464  0.095940229   -3.5204349    1.4575886      8192000 
  458000   0.97193603   -3.5209352   -3.5209352   -2.0630315  0.096163707   -3.5209352    1.4579037      8192000 
  459000   0.97181808   -3.5203779   -3.5203779   -2.0626512  0.094829316   -3.5203779    1.4577268      8192000 
  460000   0.97161429   -3.5200894   -3.5200894   -2.0626683  0.093620783   -3.5200894    1.4574211      8192000 
  461000   0.97172958   -3.5201758   -3.5201758   -2.0625818  0.095973043   -3.5201758     1.457594      8192000 
  462000   0.97165168   -3.5199423   -3.5199423   -2.0624651  0.094179274   -3.5199423    1.4574772      8192000 
  463000   0.97166276   -3.5200076   -3.5200076   -2.0625138  0.092510025   -3.5200076    1.4574938      8192000 
  464000   0.97077637   -3.5186513   -3.5186513   -2.0624871  0.092168944   -3.5186513    1.4561642      8192000 
  465000   0.97061002   -3.5185892   -3.5185892   -2.0626746  0.090988141   -3.5185892    1.4559147      8192000 
  466000   0.96984918    -3.517616    -3.517616   -2.0628426  0.089671887    -3.517616    1.4547734      8192000 
  467000   0.96974575   -3.5173039   -3.5173039   -2.0626856  0.088748576   -3.5173039    1.4546183      8192000 
  468000   0.96953285   -3.5169078   -3.5169078   -2.0626089  0.087659203   -3.5169078    1.4542989      8192000 
  469000   0.96927564   -3.5166113   -3.5166113   -2.0626982  0.084045225   -3.5166113    1.4539131      8192000 
  470000   0.96835113   -3.5152399   -3.5152399   -2.0627135  0.084360953   -3.5152399    1.4525263      8192000 
  471000   0.96809949   -3.5150087   -3.5150087   -2.0628598  0.081526165   -3.5150087    1.4521489      8192000 
  472000   0.96750233   -3.5140024   -3.5140024   -2.0627492   0.08174846   -3.5140024    1.4512531      8192000 
  473000    0.9670076   -3.5135773   -3.5135773   -2.0630663  0.079006256   -3.5135773     1.450511      8192000 
  474000    0.9660734   -3.5121039   -3.5121039   -2.0629941  0.078948625   -3.5121039    1.4491097      8192000 
  475000   0.96642475   -3.5126025   -3.5126025   -2.0629657  0.076438467   -3.5126025    1.4496368      8192000 
  476000   0.96629841   -3.5124197   -3.5124197   -2.0629724   0.07370562   -3.5124197    1.4494473      8192000 
  477000   0.96549234   -3.5110828   -3.5110828   -2.0628446  0.073922019   -3.5110828    1.4482382      8192000 
  478000   0.96521698    -3.510587    -3.510587   -2.0627619  0.072561581    -3.510587    1.4478251      8192000 
  479000   0.96470762   -3.5097209   -3.5097209   -2.0626599  0.073448524   -3.5097209    1.4470611      8192000 
  480000   0.96480488   -3.5100164   -3.5100164   -2.0628094  0.069663251   -3.5100164     1.447207      8192000 
  481000   0.96430649   -3.5094351   -3.5094351   -2.0629758  0.071100219   -3.5094351    1.4464594      8192000 
  482000   0.96412625   -3.5090349   -3.5090349   -2.0628459  0.068281876   -3.5090349     1.446189      8192000 
  483000   0.96352067   -3.5081318   -3.5081318   -2.0628512  0.069169079   -3.5081318    1.4452806      8192000 
  484000   0.96324511   -3.5076056   -3.5076056   -2.0627383  0.066415814   -3.5076056    1.4448673      8192000 
  485000   0.96263076   -3.5068176   -3.5068176   -2.0628718   0.06464641   -3.5068176    1.4439458      8192000 
  486000   0.96263605   -3.5069869   -3.5069869   -2.0630332  0.064821571   -3.5069869    1.4439537      8192000 
  487000   0.96260809   -3.5067828   -3.5067828    -2.062871  0.063654212   -3.5067828    1.4439118      8192000 
  488000   0.96273489   -3.5069262   -3.5069262   -2.0628242  0.064214794   -3.5069262     1.444102      8192000 
  489000   0.96291852   -3.5071576   -3.5071576   -2.0627802  0.064849051   -3.5071576    1.4443774      8192000 
  490000   0.96290897     -3.50739     -3.50739   -2.0630269  0.063524443     -3.50739    1.4443631      8192000 
  491000   0.96237309   -3.5067717   -3.5067717   -2.0632124  0.063170696   -3.5067717    1.4435593      8192000 
  492000    0.9622737   -3.5066623   -3.5066623   -2.0632521  0.062780697   -3.5066623    1.4434102      8192000 
  493000   0.96203906   -3.5061588   -3.5061588   -2.0631006  0.063633462   -3.5061588    1.4430582      8192000 
  494000   0.96221016   -3.5062402   -3.5062402   -2.0629253  0.064337167   -3.5062402    1.4433149      8192000 
  495000   0.96197376   -3.5059165   -3.5059165   -2.0629562  0.061024022   -3.5059165    1.4429603      8192000 
  496000   0.96204813   -3.5060978   -3.5060978    -2.063026  0.062403486   -3.5060978    1.4430718      8192000 
  497000   0.96218543   -3.5060978   -3.5060978     -2.06282  0.061048883   -3.5060978    1.4432778      8192000 
  498000   0.96171537   -3.5056335   -3.5056335   -2.0630608  0.060896501   -3.5056335    1.4425727      8192000 
  499000   0.96091174   -3.5047585   -3.5047585   -2.0633912  0.061782836   -3.5047585    1.4413673      8192000 
  500000   0.96117069   -3.5048802   -3.5048802   -2.0631245  0.061289775   -3.5048802    1.4417557      8192000 
  501000   0.96144454   -3.5053307   -3.5053307   -2.0631642  0.059309468   -3.5053307    1.4421664      8192000 
  502000   0.96167651   -3.5059352   -3.5059352   -2.0634208  0.059964304   -3.5059352    1.4425144      8192000 
  503000   0.96135001   -3.5056354   -3.5056354   -2.0636107  0.059990759   -3.5056354    1.4420247      8192000 
  504000   0.96111701   -3.5054136   -3.5054136   -2.0637384  0.060251268   -3.5054136    1.4416752      8192000 
  505000   0.96086312   -3.5051954   -3.5051954    -2.063901  0.058913881   -3.5051954    1.4412943      8192000 
  506000   0.96093769   -3.5052643   -3.5052643   -2.0638582  0.057744888   -3.5052643    1.4414062      8192000 
  507000   0.96055412   -3.5049348   -3.5049348    -2.064104  0.059658115   -3.5049348    1.4408308      8192000 
  508000   0.96046884   -3.5049981   -3.5049981   -2.0642952   0.05778237   -3.5049981    1.4407029      8192000 
  509000   0.96104719   -3.5056452   -3.5056452   -2.0640748  0.058838407   -3.5056452    1.4415704      8192000 
  510000   0.96101972   -3.5054749   -3.5054749   -2.0639457  0.058043916   -3.5054749    1.4415292      8192000 
  511000   0.96097244    -3.505527    -3.505527   -2.0640686  0.058113832    -3.505527    1.4414583      8192000 
  512000   0.96087828   -3.5054128   -3.5054128   -2.0640957  0.058476177   -3.5054128    1.4413171      8192000 
  513000   0.96096096   -3.5056799   -3.5056799   -2.0642388  0.058657623   -3.5056799    1.4414411      8192000 
  514000   0.96120667   -3.5061178   -3.5061178   -2.0643081  0.059145746   -3.5061178    1.4418097      8192000 
  515000   0.96082519   -3.5056587   -3.5056587   -2.0644213  0.059310936   -3.5056587    1.4412374      8192000 
  516000   0.96124937   -3.5065653   -3.5065653   -2.0646916  0.060551454   -3.5065653    1.4418737      8192000 
  517000   0.96094918   -3.5062821   -3.5062821   -2.0648586  0.060645475   -3.5062821    1.4414234      8192000 
  518000   0.96071289    -3.506204    -3.506204    -2.065135   0.06035344    -3.506204     1.441069      8192000 
  519000   0.96102478   -3.5068195   -3.5068195   -2.0652827  0.058993913   -3.5068195    1.4415368      8192000 
  520000    0.9612117   -3.5070062   -3.5070062    -2.065189  0.058282092   -3.5070062    1.4418172      8192000 
  521000   0.96082535    -3.506553    -3.506553   -2.0653153  0.059476945    -3.506553    1.4412377      8192000 
  522000   0.96098275   -3.5068893   -3.5068893   -2.0654156  0.060750768   -3.5068893    1.4414738      8192000 
  523000    0.9615017   -3.5078965   -3.5078965   -2.0656443  0.059278383   -3.5078965    1.4422522      8192000 
  524000   0.96108074   -3.5074533   -3.5074533   -2.0658326  0.061068039   -3.5074533    1.4416207      8192000 
  525000   0.96105734   -3.5077595   -3.5077595   -2.0661738   0.05845615   -3.5077595    1.4415857      8192000 
  526000   0.96131332   -3.5079516   -3.5079516   -2.0659819  0.058854188   -3.5079516    1.4419696      8192000 
  527000   0.96125443   -3.5076998   -3.5076998   -2.0658185  0.059286127   -3.5076998    1.4418813      8192000 
  528000   0.96128561   -3.5079612   -3.5079612   -2.0660331  0.059281042   -3.5079612    1.4419281      8192000 
  529000   0.96146623   -3.5084916   -3.5084916   -2.0662926  0.058565089   -3.5084916     1.442199      8192000 
  530000   0.96142496   -3.5086203   -3.5086203   -2.0664832   0.06109136   -3.5086203    1.4421371      8192000 
  531000   0.96072766   -3.5078153   -3.5078153   -2.0667242  0.062574566   -3.5078153    1.4410911      8192000 
  532000   0.96151615   -3.5088912   -3.5088912   -2.0666174  0.059676354   -3.5088912    1.4422739      8192000 
  533000   0.96106605   -3.5085517   -3.5085517    -2.066953  0.060745354   -3.5085517    1.4415987      8192000 
  534000   0.96102271   -3.5084399   -3.5084399   -2.0669062  0.059872476   -3.5084399    1.4415337      8192000 
  535000   0.96150754   -3.5090278   -3.5090278   -2.0667668  0.060312786   -3.5090278    1.4422609      8192000 
  536000   0.96160086   -3.5094346   -3.5094346   -2.0670337  0.061659897   -3.5094346    1.4424009      8192000 
  537000   0.96122793   -3.5088958   -3.5088958   -2.0670543  0.060395744   -3.5088958    1.4418415      8192000 
  538000   0.96144799   -3.5095004   -3.5095004   -2.0673288  0.059017757   -3.5095004    1.4421716      8192000 
  539000   0.96113342   -3.5092316   -3.5092316   -2.0675318  0.060390529   -3.5092316    1.4416998      8192000 
  540000    0.9614646   -3.5094959   -3.5094959   -2.0672993  0.060787885   -3.5094959    1.4421965      8192000 
  541000   0.96102725   -3.5088543   -3.5088543   -2.0673138  0.060944678   -3.5088543    1.4415405      8192000 
  542000   0.96102192   -3.5087466   -3.5087466    -2.067214  0.060137321   -3.5087466    1.4415325      8192000 
  543000   0.96118141   -3.5091366   -3.5091366   -2.0673649  0.058883416   -3.5091366    1.4417718      8192000 
  544000   0.96106931   -3.5088737   -3.5088737   -2.0672701  0.059558113   -3.5088737    1.4416036      8192000 
  545000   0.96124145   -3.5088507   -3.5088507   -2.0669888  0.060037591   -3.5088507    1.4418618      8192000 
  546000   0.96130225   -3.5091194   -3.5091194   -2.0671664  0.060365721   -3.5091194     1.441953      8192000 
  547000   0.96108197   -3.5087084   -3.5087084   -2.0670858  0.060030511   -3.5087084    1.4416226      8192000 
  548000   0.96078536   -3.5085941   -3.5085941   -2.0674164  0.061328172   -3.5085941    1.4411777      8192000 
  549000   0.96121473    -3.509254    -3.509254   -2.0674322  0.059958112    -3.509254    1.4418217      8192000 
  550000   0.96149741   -3.5095583   -3.5095583   -2.0673125  0.059864682   -3.5095583    1.4422458      8192000 
  551000   0.96137156   -3.5093377   -3.5093377   -2.0672807  0.059470738   -3.5093377     1.442057      8192000 
  552000   0.96119087    -3.509102    -3.509102   -2.0673161  0.061959454    -3.509102     1.441786      8192000 
  553000   0.96177676   -3.5098596   -3.5098596   -2.0671948  0.059175366   -3.5098596    1.4426648      8192000 
  554000   0.96130637   -3.5095299   -3.5095299   -2.0675707  0.060471284   -3.5095299    1.4419592      8192000 
  555000   0.96109172   -3.5093406   -3.5093406   -2.0677034  0.060154658   -3.5093406    1.4416372      8192000 
  556000   0.96121355   -3.5095752   -3.5095752   -2.0677552  0.060015279   -3.5095752      1.44182      8192000 
  557000    0.9615836   -3.5099748   -3.5099748   -2.0675998  0.062183619   -3.5099748     1.442375      8192000 
  558000   0.96161384   -3.5100498   -3.5100498   -2.0676293  0.061574302   -3.5100498    1.4424204      8192000 
  559000   0.96193935   -3.5105832   -3.5105832   -2.0676746    0.0600175   -3.5105832    1.4429087      8192000 
  560000   0.96163991   -3.5098977   -3.5098977   -2.0674382   0.06183539   -3.5098977    1.4424595      8192000 
  561000    0.9620377   -3.5102935   -3.5102935   -2.0672373  0.063914336   -3.5102935    1.4430562      8192000 
  562000   0.96199432    -3.510394    -3.510394   -2.0674029  0.060688211    -3.510394    1.4429911      8192000 
  563000   0.96215442    -3.510332    -3.510332   -2.0671008  0.062164688    -3.510332    1.4432313      8192000 
  564000   0.96238216   -3.5105695   -3.5105695   -2.0669966  0.062230688   -3.5105695    1.4435729      8192000 
  565000   0.96212227   -3.5102955   -3.5102955   -2.0671125  0.062383039   -3.5102955     1.443183      8192000 
  566000   0.96196047   -3.5103695   -3.5103695   -2.0674291  0.063413663   -3.5103695    1.4429404      8192000 
  567000   0.96224203   -3.5108065   -3.5108065   -2.0674438  0.063488845   -3.5108065    1.4433627      8192000 
  568000   0.96215149   -3.5103442   -3.5103442   -2.0671173  0.064244777   -3.5103442    1.4432269      8192000 
  569000     0.962644   -3.5110678   -3.5110678   -2.0671022  0.063530233   -3.5110678    1.4439656      8192000 
  570000   0.96297568   -3.5115986   -3.5115986   -2.0671355  0.063031345   -3.5115986    1.4444632      8192000 
  571000   0.96321898   -3.5117032   -3.5117032   -2.0668751  0.064897466   -3.5117032    1.4448281      8192000 
  572000   0.96340238   -3.5120855   -3.5120855   -2.0669823  0.064855837   -3.5120855    1.4451032      8192000 
  573000   0.96339684   -3.5118843   -3.5118843   -2.0667894  0.064647128   -3.5118843    1.4450949      8192000 
  574000   0.96297651   -3.5116162   -3.5116162   -2.0671517  0.065900023   -3.5116162    1.4444644      8192000 
  575000   0.96316827   -3.5119318   -3.5119318   -2.0671798  0.067673957   -3.5119318     1.444752      8192000 
  576000   0.96315445   -3.5120269   -3.5120269   -2.0672956  0.065506447   -3.5120269    1.4447313      8192000 
  577000   0.96343949   -3.5123769   -3.5123769    -2.067218  0.068487698   -3.5123769    1.4451589      8192000 
  578000   0.96318973   -3.5119845   -3.5119845   -2.0672002  0.067390875   -3.5119845    1.4447842      8192000 
  579000   0.96339123   -3.5124212   -3.5124212   -2.0673347  0.068040703   -3.5124212    1.4450865      8192000 
  580000   0.96369124   -3.5128551   -3.5128551   -2.0673186  0.068681752   -3.5128551    1.4455365      8192000 
  581000   0.96425545   -3.5137371   -3.5137371   -2.0673543  0.068559802   -3.5137371    1.4463828      8192000 
  582000   0.96420274   -3.5135804   -3.5135804   -2.0672766  0.067833736   -3.5135804    1.4463038      8192000 
  583000   0.96438723   -3.5138087   -3.5138087   -2.0672282  0.070547951   -3.5138087    1.4465805      8192000 
  584000   0.96432543   -3.5137826   -3.5137826   -2.0672948  0.072442065   -3.5137826    1.4464878      8192000 
  585000   0.96505969   -3.5146874   -3.5146874   -2.0670982   0.07121394   -3.5146874    1.4475892      8192000 
  586000   0.96465778   -3.5142047   -3.5142047   -2.0672184   0.07180221   -3.5142047    1.4469863      8192000 
  587000   0.96492821   -3.5146931   -3.5146931   -2.0673011  0.072438779   -3.5146931     1.447392      8192000 
  588000   0.96516999   -3.5152202   -3.5152202   -2.0674656  0.072515166   -3.5152202    1.4477546      8192000 
  589000   0.96590244   -3.5160766   -3.5160766   -2.0672233   0.07397995   -3.5160766    1.4488533      8192000 
  590000   0.96556838    -3.515401    -3.515401   -2.0670488  0.075257106    -3.515401    1.4483522      8192000 
  591000   0.96594793   -3.5159492   -3.5159492   -2.0670276  0.074271261   -3.5159492    1.4489215      8192000 
  592000    0.9661245   -3.5162277   -3.5162277   -2.0670413  0.075394261   -3.5162277    1.4491864      8192000 
  593000   0.96638374   -3.5163994   -3.5163994   -2.0668241  0.078978642   -3.5163994    1.4495753      8192000 
  594000   0.96680315   -3.5173853   -3.5173853    -2.067181  0.077705153   -3.5173853    1.4502044      8192000 
  595000   0.96684028   -3.5174607   -3.5174607   -2.0672006  0.078428801   -3.5174607    1.4502601      8192000 
  596000   0.96730165   -3.5179717   -3.5179717   -2.0670196  0.077972826   -3.5179717    1.4509521      8192000 
  597000   0.96752137    -3.518423    -3.518423   -2.0671413  0.079052238    -3.518423    1.4512817      8192000 
  598000   0.96750921   -3.5182548   -3.5182548   -2.0669914  0.079258805   -3.5182548    1.4512635      8192000 
  599000   0.96734015   -3.5181919   -3.5181919    -2.067182  0.079910826   -3.5181919    1.4510099      8192000 
  600000   0.96794325    -3.518969    -3.518969   -2.0670545  0.079182953    -3.518969    1.4519145      8192000 
  601000   0.96807121   -3.5191588   -3.5191588   -2.0670524  0.078289257   -3.5191588    1.4521065      8192000 
  602000   0.96787987   -3.5190213   -3.5190213   -2.0672019  0.079170953   -3.5190213    1.4518194      8192000 
  603000   0.96772068   -3.5188044   -3.5188044   -2.0672237  0.078452711   -3.5188044    1.4515807      8192000 
  604000   0.96758424   -3.5187582   -3.5187582   -2.0673822  0.078731281   -3.5187582     1.451376      8192000 
  605000   0.96724698   -3.5183583   -3.5183583   -2.0674882  0.077778472   -3.5183583    1.4508701      8192000 
  606000   0.96701924   -3.5177158   -3.5177158   -2.0671873  0.079175515   -3.5177158    1.4505285      8192000 
  607000   0.96726353   -3.5178393   -3.5178393   -2.0669443  0.077367529   -3.5178393    1.4508949      8192000 
  608000   0.96708305   -3.5177416   -3.5177416   -2.0671174   0.07602096   -3.5177416    1.4506242      8192000 
  609000   0.96696863   -3.5175468   -3.5175468   -2.0670943  0.075396527   -3.5175468    1.4504526      8192000 
  610000   0.96638697   -3.5164103   -3.5164103   -2.0668302  0.079846441   -3.5164103    1.4495801      8192000 
  611000   0.96611092   -3.5161141   -3.5161141   -2.0669481  0.074479071   -3.5161141     1.449166      8192000 
  612000    0.9663523   -3.5165967   -3.5165967   -2.0670686  0.073833974   -3.5165967    1.4495281      8192000 
  613000   0.96643883   -3.5166748   -3.5166748   -2.0670169  0.074052683   -3.5166748    1.4496579      8192000 
  614000   0.96637759   -3.5164077   -3.5164077   -2.0668417  0.073836015   -3.5164077     1.449566      8192000 
  615000   0.96636534   -3.5163301   -3.5163301   -2.0667825  0.074193561   -3.5163301    1.4495477      8192000 
  616000   0.96634509   -3.5163325   -3.5163325   -2.0668153   0.07402226   -3.5163325    1.4495173      8192000 
  617000   0.96570644   -3.5156691   -3.5156691   -2.0671098  0.074435657   -3.5156691    1.4485593      8192000 
  618000   0.96549582   -3.5154456   -3.5154456   -2.0672022  0.071603748   -3.5154456    1.4482434      8192000 
  619000   0.96533943   -3.5152019   -3.5152019   -2.0671932  0.071768947   -3.5152019    1.4480088      8192000 
  620000   0.96534941   -3.5150797   -3.5150797    -2.067056  0.072066763   -3.5150797    1.4480238      8192000 
  621000   0.96554043   -3.5154368   -3.5154368   -2.0671265  0.070425965   -3.5154368    1.4483103      8192000 
  622000   0.96508233    -3.514751    -3.514751   -2.0671279  0.070313617    -3.514751    1.4476231      8192000 
  623000   0.96518303   -3.5146559   -3.5146559   -2.0668817  0.069484947   -3.5146559    1.4477742      8192000 
  624000   0.96485708   -3.5139091   -3.5139091   -2.0666239  0.069658965   -3.5139091    1.4472853      8192000 
  625000   0.96489199   -3.5137067   -3.5137067    -2.066369  0.071897021   -3.5137067    1.4473376      8192000 
  626000   0.96513728    -3.514234    -3.514234   -2.0665285  0.068248547    -3.514234    1.4477056      8192000 
  627000   0.96465234   -3.5136206   -3.5136206   -2.0666424  0.070503013   -3.5136206    1.4469782      8192000 
  628000    0.9646698   -3.5137203   -3.5137203    -2.066716  0.068038888   -3.5137203    1.4470043      8192000 
  629000   0.96436464   -3.5132855   -3.5132855   -2.0667389  0.066677646   -3.5132855    1.4465466      8192000 
  630000   0.96394078   -3.5126157   -3.5126157   -2.0667049  0.067945165   -3.5126157    1.4459108      8192000 
  631000   0.96393258   -3.5128203   -3.5128203   -2.0669218  0.065512278   -3.5128203    1.4458985      8192000 
  632000   0.96372601   -3.5124703   -3.5124703   -2.0668817  0.065487775   -3.5124703    1.4455887      8192000 
  633000   0.96374937   -3.5125092   -3.5125092   -2.0668855   0.06376417   -3.5125092    1.4456237      8192000 
  634000   0.96362987    -3.512511    -3.512511   -2.0670665  0.065414722    -3.512511    1.4454444      8192000 
  635000   0.96331475   -3.5119153   -3.5119153   -2.0669435  0.063593016   -3.5119153    1.4449718      8192000 
  636000   0.96289887   -3.5114919   -3.5114919   -2.0671439  0.065070479   -3.5114919     1.444348      8192000 
  637000   0.96293682   -3.5115763   -3.5115763   -2.0671714  0.064725474   -3.5115763    1.4444049      8192000 
  638000   0.96287289    -3.511581    -3.511581    -2.067272   0.06420463    -3.511581     1.444309      8192000 
  639000    0.9628381   -3.5115584   -3.5115584   -2.0673016  0.062765262   -3.5115584    1.4442568      8192000 
  640000   0.96279424   -3.5116802   -3.5116802   -2.0674892    0.0609714   -3.5116802     1.444191      8192000 
  641000   0.96255566   -3.5114518   -3.5114518   -2.0676187   0.06180204   -3.5114518    1.4438331      8192000 
  642000   0.96285785   -3.5116437   -3.5116437   -2.0673572  0.063573705   -3.5116437    1.4442864      8192000 
  643000    0.9625279   -3.5113947   -3.5113947   -2.0676032  0.061198627   -3.5113947    1.4437915      8192000 
  644000   0.96248288   -3.5113265   -3.5113265   -2.0676026  0.062765562   -3.5113265     1.443724      8192000 
  645000   0.96256199   -3.5114661   -3.5114661   -2.0676235  0.062466651   -3.5114661    1.4438426      8192000 
  646000   0.96223918   -3.5110698   -3.5110698   -2.0677114  0.062439207   -3.5110698    1.4433584      8192000 
  647000   0.96264656   -3.5118066   -3.5118066   -2.0678371  0.060354246   -3.5118066    1.4439695      8192000 
  648000   0.96215779   -3.5113938   -3.5113938   -2.0681575   0.06140292   -3.5113938    1.4432363      8192000 
  649000   0.96220944   -3.5113857   -3.5113857   -2.0680719  0.058983101   -3.5113857    1.4433138      8192000 
  650000   0.96262142   -3.5121444   -3.5121444   -2.0682126  0.059637233   -3.5121444    1.4439318      8192000 
  651000   0.96235605   -3.5117505   -3.5117505   -2.0682168  0.060035534   -3.5117505    1.4435337      8192000 
  652000   0.96234097   -3.5117466   -3.5117466   -2.0682355  0.059684711   -3.5117466    1.4435111      8192000 
  653000   0.96190659   -3.5112675   -3.5112675    -2.068408  0.062795856   -3.5112675    1.4428595      8192000 
  654000   0.96242085   -3.5117969   -3.5117969   -2.0681659  0.061601347   -3.5117969    1.4436309      8192000 
  655000   0.96281804   -3.5125644   -3.5125644   -2.0683377  0.059874185   -3.5125644    1.4442267      8192000 
  656000    0.9625347   -3.5120875   -3.5120875   -2.0682858  0.061214585   -3.5120875    1.4438017      8192000 
  657000   0.96261038   -3.5123037   -3.5123037   -2.0683884  0.061941656   -3.5123037    1.4439152      8192000 
  658000   0.96242477   -3.5123329   -3.5123329   -2.0686961  0.060431927   -3.5123329    1.4436368      8192000 
  659000   0.96243301   -3.5123554   -3.5123554   -2.0687062  0.061230382   -3.5123554    1.4436492      8192000 
  660000   0.96246216   -3.5124103   -3.5124103   -2.0687174  0.060969508   -3.5124103    1.4436929      8192000 
  661000   0.96239054   -3.5122294   -3.5122294   -2.0686439  0.059697145   -3.5122294    1.4435855      8192000 
  662000   0.96253317   -3.5125752   -3.5125752   -2.0687759  0.059807294   -3.5125752    1.4437994      8192000 
  663000   0.96245221   -3.5125778   -3.5125778   -2.0688999   0.06182905   -3.5125778     1.443678      8192000 
  664000   0.96233034   -3.5125574   -3.5125574   -2.0690623  0.063055969   -3.5125574    1.4434952      8192000 
  665000   0.96247853   -3.5128922   -3.5128922   -2.0691748  0.062426374   -3.5128922    1.4437174      8192000 
  666000   0.96313838    -3.514124    -3.514124   -2.0694168  0.061461256    -3.514124    1.4447072      8192000 
  667000   0.96252079   -3.5132595   -3.5132595   -2.0694787  0.062123787   -3.5132595    1.4437808      8192000 
  668000   0.96242566   -3.5132321   -3.5132321    -2.069594  0.061444051   -3.5132321    1.4436381      8192000 
  669000   0.96261946   -3.5132706   -3.5132706   -2.0693418  0.061590573   -3.5132706    1.4439288      8192000 
  670000   0.96220068    -3.512655    -3.512655   -2.0693544  0.061168437    -3.512655    1.4433007      8192000 
  671000   0.96210504   -3.5126941   -3.5126941   -2.0695369  0.060378869   -3.5126941    1.4431572      8192000 
  672000   0.96221414   -3.5128009   -3.5128009   -2.0694801  0.060196284   -3.5128009    1.4433208      8192000 
  673000   0.96211843   -3.5127194   -3.5127194   -2.0695422  0.059988151   -3.5127194    1.4431773      8192000 
  674000   0.96224889   -3.5129493   -3.5129493   -2.0695763  0.060852577   -3.5129493     1.443373      8192000 
  675000   0.96193346   -3.5127178   -3.5127178   -2.0698179  0.062776738   -3.5127178    1.4428998      8192000 
  676000    0.9618903     -3.51289     -3.51289   -2.0700549  0.061787496     -3.51289    1.4428351      8192000 
  677000   0.96144359   -3.5121596   -3.5121596   -2.0699946   0.06109758   -3.5121596     1.442165      8192000 
  678000   0.96217056    -3.513435    -3.513435   -2.0701795  0.061509105    -3.513435    1.4432555      8192000 
  679000   0.96227464   -3.5135724   -3.5135724   -2.0701608  0.060528596   -3.5135724    1.4434116      8192000 
  680000   0.96237368   -3.5136309   -3.5136309   -2.0700707  0.059710581   -3.5136309    1.4435602      8192000 
  681000   0.96230209   -3.5131071   -3.5131071   -2.0696543  0.060959036   -3.5131071    1.4434528      8192000 
  682000   0.96195122   -3.5127555   -3.5127555    -2.069829  0.060490277   -3.5127555    1.4429265      8192000 
  683000   0.96208978   -3.5133621   -3.5133621   -2.0702278  0.061802388   -3.5133621    1.4431343      8192000 
[...]
  837000   0.96303215   -3.5172288   -3.5172288   -2.0726809  0.064388808   -3.5172288    1.4445479      8192000 
  838000    0.9631793   -3.5176405   -3.5176405   -2.0728719  0.064143415   -3.5176405    1.4447686      8192000 
  839000   0.96364216   -3.5180989   -3.5180989   -2.0726361  0.063924799   -3.5180989    1.4454629      8192000 
  840000   0.96334517   -3.5174079   -3.5174079   -2.0723906  0.063541382   -3.5174079    1.4450174      8192000 
  841000   0.96355886    -3.517642    -3.517642   -2.0723041  0.064369952    -3.517642    1.4453379      8192000 
  842000   0.96388744    -3.518088    -3.518088   -2.0722572   0.06373916    -3.518088    1.4458308      8192000 
  843000   0.96379314   -3.5180072   -3.5180072   -2.0723178   0.06417386   -3.5180072    1.4456894      8192000 
  844000   0.96396058   -3.5180176   -3.5180176   -2.0720771  0.066030899   -3.5180176    1.4459405      8192000 
  845000   0.96413861   -3.5182218   -3.5182218   -2.0720143  0.064159954   -3.5182218    1.4462076      8192000 
  846000   0.96396991   -3.5180231   -3.5180231   -2.0720686  0.064405658   -3.5180231    1.4459545      8192000 
  847000   0.96355867   -3.5177612   -3.5177612   -2.0724235  0.066478901   -3.5177612    1.4453376      8192000 
  848000   0.96382061   -3.5181299   -3.5181299   -2.0723993  0.064077849   -3.5181299    1.4457306      8192000 
  849000   0.96416767   -3.5185329   -3.5185329   -2.0722818  0.064824741   -3.5185329    1.4462511      8192000 
  850000   0.96393255   -3.5180954   -3.5180954    -2.072197  0.065026904   -3.5180954    1.4458985      8192000 
  851000   0.96367282     -3.51771     -3.51771   -2.0722012  0.065236148     -3.51771    1.4455089      8192000 
  852000    0.9644107    -3.518897    -3.518897   -2.0722813  0.065290379    -3.518897    1.4466157      8192000 
  853000    0.9645546   -3.5190783   -3.5190783   -2.0722468  0.067114788   -3.5190783    1.4468315      8192000 
  854000   0.96454301   -3.5192826   -3.5192826   -2.0724685  0.065566503   -3.5192826    1.4468142      8192000 
  855000   0.96450068   -3.5189897   -3.5189897   -2.0722391  0.066655141   -3.5189897    1.4467507      8192000 
  856000   0.96436757   -3.5186946   -3.5186946   -2.0721436  0.069135007   -3.5186946     1.446551      8192000 
  857000   0.96459424   -3.5192756   -3.5192756   -2.0723845  0.066870416   -3.5192756     1.446891      8192000 
  858000   0.96492797    -3.519706    -3.519706   -2.0723144  0.065504353    -3.519706    1.4473916      8192000 
  859000    0.9650614   -3.5196175   -3.5196175   -2.0720257  0.066937809   -3.5196175    1.4475917      8192000 
  860000   0.96537489   -3.5199417   -3.5199417   -2.0718798  0.069299647   -3.5199417     1.448062      8192000 
  861000   0.96516557   -3.5195118   -3.5195118   -2.0717638  0.069009445   -3.5195118     1.447748      8192000 
  862000   0.96512082   -3.5195021   -3.5195021   -2.0718212  0.067536243   -3.5195021    1.4476809      8192000 
  863000   0.96511991   -3.5195098   -3.5195098   -2.0718302  0.069453085   -3.5195098    1.4476795      8192000 
  864000   0.96539677   -3.5198761   -3.5198761   -2.0717813  0.069382111   -3.5198761    1.4480948      8192000 
  865000    0.9654947   -3.5199876   -3.5199876   -2.0717459  0.071027197   -3.5199876    1.4482417      8192000 
  866000   0.96549482   -3.5201596   -3.5201596   -2.0719177  0.070752038   -3.5201596    1.4482419      8192000 
  867000   0.96609076   -3.5208553   -3.5208553   -2.0717195  0.069237691   -3.5208553    1.4491358      8192000 
  868000   0.96562639   -3.5202568   -3.5202568   -2.0718176  0.071121327   -3.5202568    1.4484392      8192000 
  869000   0.96550182   -3.5202434   -3.5202434   -2.0719911  0.071555326   -3.5202434    1.4482524      8192000 
  870000   0.96587246   -3.5205486   -3.5205486   -2.0717403  0.069845591   -3.5205486    1.4488083      8192000 
  871000   0.96529449   -3.5198571   -3.5198571   -2.0719157  0.070621319   -3.5198571    1.4479414      8192000 
  872000   0.96568041   -3.5204406   -3.5204406   -2.0719203   0.06832511   -3.5204406    1.4485203      8192000 
  873000   0.96547037   -3.5201359   -3.5201359   -2.0719307  0.069858567   -3.5201359    1.4482052      8192000 
  874000   0.96570922   -3.5203584   -3.5203584    -2.071795  0.069638536   -3.5203584    1.4485635      8192000 
  875000   0.96583537   -3.5205448   -3.5205448   -2.0717921  0.069494021   -3.5205448    1.4487527      8192000 
  876000   0.96587645   -3.5204851   -3.5204851   -2.0716708  0.069319017   -3.5204851    1.4488143      8192000 
  877000   0.96608361   -3.5205889   -3.5205889   -2.0714638   0.06802246   -3.5205889    1.4491251      8192000 
  878000   0.96581022   -3.5200768   -3.5200768   -2.0713619  0.068702017   -3.5200768     1.448715      8192000 
  879000   0.96583927   -3.5201289   -3.5201289   -2.0713704  0.069670632   -3.5201289    1.4487586      8192000 
  880000   0.96612615   -3.5205765   -3.5205765   -2.0713876  0.068708858   -3.5205765    1.4491889      8192000 
  881000     0.965884   -3.5204273   -3.5204273   -2.0716016  0.069380656   -3.5204273    1.4488256      8192000 
  882000   0.96557999   -3.5202737   -3.5202737   -2.0719041  0.069035607   -3.5202737    1.4483696      8192000 
  883000   0.96564183   -3.5202502   -3.5202502   -2.0717878  0.068410035   -3.5202502    1.4484624      8192000 
  884000   0.96565071    -3.520227    -3.520227   -2.0717513  0.067839063    -3.520227    1.4484757      8192000 
  885000   0.96471954   -3.5189432   -3.5189432   -2.0718642  0.069623536   -3.5189432    1.4470789      8192000 
  886000   0.96575537   -3.5205641   -3.5205641   -2.0719314  0.067057504   -3.5205641    1.4486327      8192000 
  887000   0.96517627   -3.5198037   -3.5198037   -2.0720397  0.067871591   -3.5198037     1.447764      8192000 
  888000   0.96511729   -3.5196702   -3.5196702   -2.0719946  0.066564961   -3.5196702    1.4476756      8192000 
  889000   0.96524229   -3.5198315   -3.5198315   -2.0719684  0.066787474   -3.5198315    1.4478631      8192000 
  890000    0.9651793   -3.5196727   -3.5196727   -2.0719041   0.06814067   -3.5196727    1.4477686      8192000 
  891000   0.96489987   -3.5191081   -3.5191081   -2.0717587  0.067778231   -3.5191081    1.4473494      8192000 
  892000   0.96497945    -3.519228    -3.519228   -2.0717592  0.068500862    -3.519228    1.4474688      8192000 
  893000   0.96503163   -3.5192326   -3.5192326   -2.0716856  0.068362782   -3.5192326    1.4475471      8192000 
  894000   0.96511915   -3.5192445   -3.5192445   -2.0715662  0.066325362   -3.5192445    1.4476784      8192000 
  895000   0.96500543   -3.5191705   -3.5191705   -2.0716627  0.066758042   -3.5191705    1.4475078      8192000 
  896000   0.96504481   -3.5193184   -3.5193184   -2.0717516  0.066702991   -3.5193184    1.4475669      8192000 
  897000   0.96476436   -3.5188859   -3.5188859   -2.0717397  0.067431994   -3.5188859    1.4471462      8192000 
  898000   0.96534867    -3.519659    -3.519659   -2.0716363  0.066733096    -3.519659    1.4480226      8192000 
  899000   0.96486107   -3.5192145   -3.5192145   -2.0719232  0.067080616   -3.5192145    1.4472912      8192000 
  900000   0.96445293   -3.5189734   -3.5189734   -2.0722944  0.065187257   -3.5189734     1.446679      8192000 
  901000   0.96468419   -3.5192658   -3.5192658   -2.0722399  0.065666748   -3.5192658    1.4470259      8192000 
  902000   0.96507983    -3.519698    -3.519698   -2.0720787  0.066424558    -3.519698    1.4476194      8192000 
  903000   0.96454045   -3.5188277   -3.5188277   -2.0720173  0.067929831   -3.5188277    1.4468103      8192000 
  904000   0.96392347   -3.5180728   -3.5180728    -2.072188  0.067973133   -3.5180728    1.4458849      8192000 
  905000   0.96473541   -3.5192022   -3.5192022   -2.0720995  0.066510448   -3.5192022    1.4471028      8192000 
  906000   0.96487329   -3.5195697   -3.5195697   -2.0722601  0.065301319   -3.5195697    1.4473096      8192000 
  907000   0.96440643   -3.5188631   -3.5188631   -2.0722538  0.067042964   -3.5188631    1.4466093      8192000 
  908000   0.96455801   -3.5189984   -3.5189984   -2.0721617    0.0648884   -3.5189984    1.4468367      8192000 
  909000   0.96459486   -3.5188431   -3.5188431   -2.0719511  0.067990276   -3.5188431    1.4468919      8192000 
  910000   0.96480046   -3.5193381   -3.5193381   -2.0721378  0.065892286   -3.5193381    1.4472003      8192000 
  911000   0.96410419    -3.518613    -3.518613   -2.0724571  0.066262372    -3.518613    1.4461559      8192000 
  912000   0.96436546   -3.5188374   -3.5188374   -2.0722895  0.063475268   -3.5188374    1.4465478      8192000 
  913000   0.96486026   -3.5194593   -3.5194593   -2.0721693   0.06413402   -3.5194593      1.44729      8192000 
  914000   0.96420116   -3.5189498   -3.5189498   -2.0726484  0.064368295   -3.5189498    1.4463014      8192000 
  915000   0.96374149   -3.5181698   -3.5181698   -2.0725579  0.065387751   -3.5181698    1.4456119      8192000 
  916000   0.96399033   -3.5187933   -3.5187933   -2.0728082  0.065987446   -3.5187933    1.4459851      8192000 
  917000   0.96387762   -3.5189723   -3.5189723   -2.0731562  0.063330742   -3.5189723    1.4458161      8192000 
  918000   0.96363104     -3.51821     -3.51821   -2.0727638  0.064828787     -3.51821    1.4454462      8192000 
  919000   0.96400248   -3.5188391   -3.5188391   -2.0728358  0.064327084   -3.5188391    1.4460034      8192000 
  920000   0.96401981   -3.5189706   -3.5189706   -2.0729413  0.063997717   -3.5189706    1.4460294      8192000 
  921000   0.96390739   -3.5186715   -3.5186715   -2.0728108  0.063809038   -3.5186715    1.4458607      8192000 
  922000   0.96352237    -3.517961    -3.517961   -2.0726778  0.065645685    -3.517961    1.4452832      8192000 
  923000   0.96340786   -3.5181967   -3.5181967   -2.0730853   0.06177489   -3.5181967    1.4451114      8192000 
  924000   0.96397952   -3.5190486   -3.5190486   -2.0730796  0.064192106   -3.5190486    1.4459689      8192000 
  925000    0.9640587   -3.5192275   -3.5192275   -2.0731399  0.064092998   -3.5192275    1.4460877      8192000 
  926000   0.96419942   -3.5192586   -3.5192586   -2.0729598  0.063463787   -3.5192586    1.4462988      8192000 
  927000   0.96416771   -3.5192096   -3.5192096   -2.0729584  0.062981217   -3.5192096    1.4462512      8192000 
  928000   0.96389818   -3.5188083   -3.5188083   -2.0729614  0.062689473   -3.5188083    1.4458469      8192000 
  929000   0.96338835   -3.5180672   -3.5180672    -2.072985  0.063279328   -3.5180672    1.4450822      8192000 
  930000   0.96337562    -3.517894    -3.517894   -2.0728309   0.06462307    -3.517894    1.4450631      8192000 
  931000   0.96313206    -3.517713    -3.517713   -2.0730153  0.063149566    -3.517713    1.4446977      8192000 
  932000   0.96339926   -3.5181022   -3.5181022   -2.0730037  0.063271962   -3.5181022    1.4450985      8192000 
  933000   0.96385207   -3.5189079   -3.5189079   -2.0731302  0.063522018   -3.5189079    1.4457777      8192000 
  934000   0.96315016   -3.5181004   -3.5181004   -2.0733755    0.0626549   -3.5181004    1.4447249      8192000 
  935000   0.96298245   -3.5180161   -3.5180161   -2.0735428  0.060489129   -3.5180161    1.4444733      8192000 
  936000   0.96312846    -3.518541    -3.518541   -2.0738487  0.062425202    -3.518541    1.4446923      8192000 
  937000   0.96277073    -3.518058    -3.518058   -2.0739023   0.06245384    -3.518058    1.4441557      8192000 
  938000   0.96309517    -3.518398    -3.518398   -2.0737556  0.062659756    -3.518398    1.4446424      8192000 
  939000   0.96327737   -3.5189077   -3.5189077   -2.0739921  0.061363707   -3.5189077    1.4449157      8192000 
  940000   0.96292494   -3.5183884   -3.5183884   -2.0740013  0.062181804   -3.5183884    1.4443871      8192000 
  941000   0.96305698   -3.5187489   -3.5187489   -2.0741638   0.06067098   -3.5187489    1.4445851      8192000 
  942000   0.96289852   -3.5183956   -3.5183956   -2.0740482  0.060835015   -3.5183956    1.4443474      8192000 
  943000   0.96297105   -3.5185802   -3.5185802   -2.0741239  0.061438425   -3.5185802    1.4444562      8192000 
  944000   0.96291525   -3.5184281   -3.5184281   -2.0740556  0.060727868   -3.5184281    1.4443725      8192000 
  945000   0.96287043   -3.5184851   -3.5184851   -2.0741798  0.061791523   -3.5184851    1.4443053      8192000 
  946000   0.96314796   -3.5188369   -3.5188369   -2.0741153  0.061682686   -3.5188369    1.4447216      8192000 
  947000   0.96285291   -3.5186576   -3.5186576   -2.0743786  0.063670378   -3.5186576     1.444279      8192000 
  948000   0.96266642   -3.5183556   -3.5183556   -2.0743563  0.061994674   -3.5183556    1.4439993      8192000 
  949000   0.96362059   -3.5197244   -3.5197244   -2.0742939  0.062557315   -3.5197244    1.4454305      8192000 
  950000   0.96313856   -3.5190645   -3.5190645   -2.0743571  0.061856265   -3.5190645    1.4447075      8192000 
  951000   0.96371856   -3.5199875   -3.5199875     -2.07441  0.060551393   -3.5199875    1.4455775      8192000 
  952000   0.96286988   -3.5184479   -3.5184479   -2.0741434  0.063377952   -3.5184479    1.4443045      8192000 
  953000   0.96318446   -3.5189559   -3.5189559   -2.0741796  0.062746742   -3.5189559    1.4447763      8192000 
  954000   0.96328829    -3.518912    -3.518912   -2.0739799  0.064766374    -3.518912    1.4449321      8192000 
  955000   0.96385965   -3.5201143   -3.5201143   -2.0743252  0.060755996   -3.5201143    1.4457891      8192000 
  956000   0.96329836   -3.5195202   -3.5195202   -2.0745731  0.063512338   -3.5195202    1.4449472      8192000 
  957000   0.96346966   -3.5199518   -3.5199518   -2.0747477  0.063628327   -3.5199518    1.4452041      8192000 
  958000   0.96387285   -3.5206167   -3.5206167   -2.0748078  0.059932383   -3.5206167    1.4458089      8192000 
  959000   0.96358724   -3.5199331   -3.5199331   -2.0745526  0.062292092   -3.5199331    1.4453805      8192000 
  960000   0.96399688   -3.5202826   -3.5202826   -2.0742877  0.062826911   -3.5202826     1.445995      8192000 
  961000   0.96340375   -3.5193585   -3.5193585   -2.0742533  0.064335893   -3.5193585    1.4451053      8192000 
  962000   0.96391418   -3.5198862   -3.5198862   -2.0740153  0.062473038   -3.5198862    1.4458709      8192000 
  963000   0.96381987   -3.5198808   -3.5198808   -2.0741514  0.062805751   -3.5198808    1.4457294      8192000 
  964000    0.9637964   -3.5201318   -3.5201318   -2.0744375  0.063275427   -3.5201318    1.4456942      8192000 
  965000    0.9633881   -3.5196448   -3.5196448    -2.074563   0.06300018   -3.5196448    1.4450818      8192000 
  966000   0.96367116   -3.5200379   -3.5200379   -2.0745315  0.062595956   -3.5200379    1.4455064      8192000 
  967000   0.96420055   -3.5204321   -3.5204321   -2.0741316  0.063114486   -3.5204321    1.4463005      8192000 
  968000   0.96390222   -3.5201696   -3.5201696   -2.0743166  0.064589078   -3.5201696     1.445853      8192000 
  969000   0.96375212   -3.5199061   -3.5199061   -2.0742783  0.063307305   -3.5199061    1.4456278      8192000 
  970000   0.96367712   -3.5197854   -3.5197854     -2.07427  0.062146652   -3.5197854    1.4455153      8192000 
  971000   0.96356631     -3.51981     -3.51981   -2.0744609  0.064626764     -3.51981    1.4453491      8192000 
  972000   0.96337867   -3.5194129   -3.5194129   -2.0743452  0.064230279   -3.5194129    1.4450676      8192000 
  973000    0.9640264   -3.5202958   -3.5202958   -2.0742565  0.061523923   -3.5202958    1.4460392      8192000 
  974000     0.963675   -3.5194872   -3.5194872    -2.073975  0.064039934   -3.5194872    1.4455121      8192000 
  975000   0.96404019   -3.5198341   -3.5198341   -2.0737742  0.063819024   -3.5198341    1.4460599      8192000 
  976000   0.96413467   -3.5202075   -3.5202075   -2.0740059  0.060952132   -3.5202075    1.4462017      8192000 
  977000   0.96411518   -3.5203667   -3.5203667   -2.0741942  0.063368662   -3.5203667    1.4461724      8192000 
  978000    0.9637278   -3.5197152   -3.5197152   -2.0741238  0.064470709   -3.5197152    1.4455913      8192000 
  979000   0.96393808   -3.5202171   -3.5202171   -2.0743103  0.063578609   -3.5202171    1.4459068      8192000 
  980000   0.96347217   -3.5195256   -3.5195256   -2.0743177  0.062192949   -3.5195256    1.4452079      8192000 
  981000   0.96361161   -3.5197288   -3.5197288   -2.0743118  0.065875618   -3.5197288    1.4454171      8192000 
  982000   0.96393372   -3.5201586   -3.5201586   -2.0742584  0.065041402   -3.5201586    1.4459002      8192000 
  983000   0.96444632   -3.5209883   -3.5209883   -2.0743192  0.064049379   -3.5209883    1.4466691      8192000 
  984000   0.96428035   -3.5204065   -3.5204065   -2.0739864  0.065008821   -3.5204065    1.4464202      8192000 
  985000   0.96389665   -3.5198017   -3.5198017   -2.0739571  0.066148372   -3.5198017    1.4458446      8192000 
  986000   0.96408869    -3.519949    -3.519949   -2.0738163  0.065884635    -3.519949    1.4461327      8192000 
  987000   0.96380888   -3.5195836   -3.5195836   -2.0738706  0.063546029   -3.5195836     1.445713      8192000 
  988000   0.96454599   -3.5208156   -3.5208156    -2.073997  0.063569312   -3.5208156    1.4468186      8192000 
  989000   0.96445488   -3.5208193   -3.5208193   -2.0741374  0.065600211   -3.5208193     1.446682      8192000 
  990000   0.96403798   -3.5201858   -3.5201858   -2.0741292  0.065749477   -3.5201858    1.4460566      8192000 
  991000   0.96464475   -3.5209835   -3.5209835   -2.0740168  0.064811164   -3.5209835    1.4469668      8192000 
  992000   0.96438048   -3.5207101   -3.5207101   -2.0741397  0.067197369   -3.5207101    1.4465704      8192000 
  993000   0.96485407   -3.5216033   -3.5216033   -2.0743226  0.064919313   -3.5216033    1.4472807      8192000 
  994000    0.9645773   -3.5213994   -3.5213994   -2.0745338  0.067371707   -3.5213994    1.4468656      8192000 
  995000   0.96513978    -3.522223    -3.522223   -2.0745137  0.066347228    -3.522223    1.4477093      8192000 
  996000   0.96534354   -3.5224238   -3.5224238   -2.0744088  0.065220459   -3.5224238     1.448015      8192000 
  997000   0.96516355   -3.5222546   -3.5222546   -2.0745096  0.068281031   -3.5222546     1.447745      8192000 
  998000   0.96490115   -3.5217267   -3.5217267   -2.0743754  0.066869173   -3.5217267    1.4473514      8192000 
  999000   0.96500563   -3.5218312   -3.5218312   -2.0743232  0.067741701   -3.5218312    1.4475081      8192000 
 1000000   0.96496211   -3.5216047   -3.5216047   -2.0741619  0.068096865   -3.5216047    1.4474428      8192000 
Loop time of 32710.7 on 128 procs for 1000000 steps with 4044800 atoms

Performance: 6603.346 tau/day, 30.571 timesteps/s
99.5% CPU use with 128 MPI tasks x 1 OpenMP threads

MPI task timing breakdown:
Section |  min time  |  avg time  |  max time  |%varavg|  %CPU | %total
-----------------------------------------------------------------------
Pair    | 5244.3     | 12667      | 21275      |2544.7 |  99.6 | 38.73
Bond    | 0.43045    | 0.72556    | 1.0042     |  11.3 | 100.0 |  0.00
Neigh   | 1781.2     | 3356.3     | 4897.5     |1113.5 | 100.0 | 10.26
Comm    | 4913.3     | 14686      | 23706      |2894.6 |  99.3 | 44.90
Output  | 160.83     | 306.94     | 544.18     | 454.3 |  99.3 |  0.94
Modify  | 431.66     | 802.74     | 1885.6     |1143.3 |  99.7 |  2.45
Other   |            | 890.7      |            |       |       |  2.72

Nlocal:        31600.0 ave       53042 max       24373 min
Histogram: 3 7 110 6 1 0 0 0 0 1
Nghost:        15734.8 ave       19316 max       11838 min
Histogram: 2 14 31 9 4 2 7 50 8 1
Neighs:       928009.0 ave 1.34238e+06 max      402736 min
Histogram: 3 4 6 4 9 36 65 0 0 1

Total # of neighbors = 1.1878511e+08
Ave neighs/atom = 29.367364
Ave special neighs/atom = 0.0000000
Neighbor list builds = 72455
Dangerous builds = 2905
Total wall time: 9:05:32
