LAMMPS (24 Dec 2020)
OMP_NUM_THREADS environment is not set. Defaulting to 1 thread. (src/comm.cpp:94)
  using 1 OpenMP thread(s) per MPI task
# Simple rigid body system
# needed variables:

units		lj
atom_style	full
dimension 	3
boundary	p p f
pair_style	lj/smooth/linear 3.0

variable 	sigma		equal 1.0
variable 	epsilon 	equal 1.0

region		box block 0 80 0 80 0 160
create_box 	3 box
Created orthogonal box = (0.0000000 0.0000000 0.0000000) to (80.000000 80.000000 160.00000)
  6 by 4 by 8 MPI processor grid



lattice 	sc 0.66
Lattice spacing in x,y,z = 1.1485556 1.1485556 1.1485556
region		fluid block EDGE EDGE EDGE EDGE 2 100 units box
create_atoms 	1 region fluid
Created 421400 atoms
  create_atoms CPU = 0.156 seconds

lattice 	sc 0.045
Lattice spacing in x,y,z = 2.8114422 2.8114422 2.8114422
region		gas block EDGE EDGE EDGE EDGE 101 158 units box
create_atoms    1 region gas
Created 17661 atoms
  create_atoms CPU = 0.005 seconds

group		solvent type 1
439061 atoms in group solvent

mass		1 1.0
mass		2 1.0
mass		3 1.0



neighbor 	0.4 bin

pair_coeff	1 1 1.0 1.0
pair_coeff	2 2 0.0 0.0
pair_coeff	3 3 0.0 0.0
pair_coeff	2 3 0.0 0.0
pair_coeff	1 2*3 0.0 0.0

pair_modify 	shift yes

delete_atoms	overlap 0.5 solvent solvent
System init for delete_atoms ...
Neighbor list info ...
  update every 1 steps, delay 10 steps, check yes
  max neighbors/atom: 2000, page size: 100000
  master list distance cutoff = 3.4
  ghost atom cutoff = 3.4
  binsize = 1.7, bins = 48 48 95
  2 neighbor lists, perpetual/occasional/extra = 1 1 0
  (1) command delete_atoms, occasional
      attributes: full, newton on
      pair build: full/bin
      stencil: full/bin/3d
      bin: standard
  (2) pair lj/smooth/linear, perpetual
      attributes: half, newton on
      pair build: half/bin/newton
      stencil: half/bin/3d/newton
      bin: standard
WARNING: Ignoring 'compress yes' for molecular system (src/delete_atoms.cpp:125)
Deleted 0 atoms, new total = 439061

velocity 	solvent create ${startTemp} 563435 loop geom
velocity 	solvent create 1.0 563435 loop geom

balance 	1.05 shift z 10 1.05
Balancing ...
Neighbor list info ...
  update every 1 steps, delay 10 steps, check yes
  max neighbors/atom: 2000, page size: 100000
  master list distance cutoff = 3.4
  ghost atom cutoff = 3.4
  binsize = 1.7, bins = 48 48 95
  1 neighbor lists, perpetual/occasional/extra = 1 0 0
  (1) pair lj/smooth/linear, perpetual
      attributes: half, newton on
      pair build: half/bin/newton
      stencil: half/bin/3d/newton
      bin: standard
 rebalancing time: 0.010 seconds
  iteration count = 5
  initial/final maximal load/proc = 3888.0000 2808.0000
  initial/final imbalance factor  = 1.7002102 1.2279296
  x cuts: 0.0000000 0.16666667 0.33333333 0.50000000 0.66666667 0.83333333 1.0000000
  y cuts: 0.0000000 0.25000000 0.50000000 0.75000000 1.0000000
  z cuts: 0.0000000 0.089843750 0.17578125 0.25390625 0.33593750 0.41406250 0.50390625 0.58203125 1.0000000


####################### WALLS ###########################


variable       epsilonWall equal 2*${epsilon}
variable       epsilonWall equal 2*1

variable       cutoffTop   equal   0.7147*${sigma}
variable       cutoffTop   equal   0.7147*1

variable       cutoffLow   equal   3*${sigma}
variable       cutoffLow   equal   3*1


fix            topWall all wall/lj93 zhi EDGE                ${epsilonWall} ${sigma} ${cutoffTop} units box
fix            topWall all wall/lj93 zhi EDGE                2 ${sigma} ${cutoffTop} units box
fix            topWall all wall/lj93 zhi EDGE                2 1 ${cutoffTop} units box
fix            topWall all wall/lj93 zhi EDGE                2 1 0.7147 units box

fix            lowWall all wall/lj93 zlo EDGE                ${epsilonWall} ${sigma} ${cutoffLow} units box
fix            lowWall all wall/lj93 zlo EDGE                2 ${sigma} ${cutoffLow} units box
fix            lowWall all wall/lj93 zlo EDGE                2 1 ${cutoffLow} units box
fix            lowWall all wall/lj93 zlo EDGE                2 1 3 units box


###################### COMPUTES ##########################

compute        bin1 solvent chunk/atom bin/1d z upper 1.0


######################	FIXES ############################


fix 		peclet solvent ave/chunk 1000 1 1000 bin1 density/number norm 		 none ave one file density.profile

fix 		 temp solvent ave/chunk 1000 1 1000 bin1 temp norm 		 none ave one file temp.profile

fix 		2 solvent nve


## Thermostat


region		regthermo block EDGE EDGE EDGE EDGE 0 20 units box

group 		thermo dynamic solvent region regthermo every 1000
dynamic group thermo defined

fix 		3 thermo langevin ${startTemp} ${temp} 10 156453
fix 		3 thermo langevin 1.0 ${temp} 10 156453
fix 		3 thermo langevin 1.0 0.1 10 156453



#### Load balancing


fix 		bal all balance 1000 1.05 shift z 10 1.05


############### Diagnostics and computes ###################
#compute 	com cube	  rigid/local	1 mol x y z
#compute 	quat cube	  rigid/local	1 mol quatw quati quatj quatk

thermo 		1000
thermo_style 	custom step temp epair evdwl etotal press pe ke atoms

dump		1 all custom 100000 dump.lammpstrj id mol type x y z
dump 		2 all image 10000 image.*.png type type
dump 		3 all movie 1000 movie.avi type type

#dump 		com cube local 1000 dump.*.xyz c_com[*]
#dump		quat cube      local 1000 dump.*.quat c_quat[*]


restart 	1000000 restart.dat
timestep 	0.005
timer 		full
New timer settings: style=full  mode=nosync  timeout=off

run		3000000
Per MPI rank memory allocation (min/avg/max) = 9.973 | 10.34 | 10.47 Mbytes
Step Temp E_pair E_vdwl TotEng Press PotEng KinEng Atoms 
       0            1   -1.2326262   -1.2326262    0.2673704    3.9887841   -1.2326262    1.4999966   439061 
    1000    2.0072926   -3.2185153   -3.2185153  -0.20758333    2.0651458   -3.2185153     3.010932   439061 
    2000    1.8751837   -3.2046385   -3.2046385  -0.39186938    1.2040152   -3.2046385    2.8127691   439061 
    3000    1.6908974   -3.0849704   -3.0849704  -0.54863007   0.86640746   -3.0849704    2.5363403   439061 
    4000    1.6016564   -3.0534919   -3.0534919  -0.65101283   0.67678562   -3.0534919    2.4024791   439061 
    5000    1.5476027   -3.0126094   -3.0126094  -0.69121065   0.52966938   -3.0126094    2.3213988   439061 
    6000    1.5116156   -2.9594721   -2.9594721  -0.69205386   0.42896846   -2.9594721    2.2674182   439061 
    7000    1.4830788   -2.9042644   -2.9042644  -0.67965133   0.40120299   -2.9042644    2.2246131   439061 
    8000    1.4689623   -2.8649696   -2.8649696  -0.66153123   0.42199465   -2.8649696    2.2034384   439061 
    9000    1.4736596   -2.8535827   -2.8535827  -0.64309828   0.47732324   -2.8535827    2.2104844   439061 
   10000    1.4906077   -2.8633258   -2.8633258  -0.62741933   0.52290102   -2.8633258    2.2359065   439061 
   11000    1.5016235   -2.8682331   -2.8682331  -0.61580301   0.55538673   -2.8682331    2.2524301   439061 
   12000    1.5091916    -2.869951    -2.869951  -0.60616872    0.5711568    -2.869951    2.2637823   439061 
   13000    1.5023694   -2.8517925   -2.8517925  -0.59824358   0.56002417   -2.8517925    2.2535489   439061 
   14000    1.4844634   -2.8214652   -2.8214652  -0.59477519    0.5030212   -2.8214652      2.22669   439061 
   15000    1.4583003   -2.7768415   -2.7768415  -0.58939604   0.46059196   -2.7768415    2.1874455   439061 
   16000    1.4420425   -2.7485209   -2.7485209  -0.58546218     0.427334   -2.7485209    2.1630588   439061 
   17000    1.4274352   -2.7245945   -2.7245945  -0.58344656   0.42169177   -2.7245945    2.1411479   439061 
   18000     1.421116   -2.7212533   -2.7212533  -0.58958407   0.43214429   -2.7212533    2.1316692   439061 
   19000    1.4127478   -2.7368851   -2.7368851  -0.61776822   0.44441503   -2.7368851    2.1191168   439061 
   20000    1.3935569   -2.7583251   -2.7583251  -0.66799445   0.46522743   -2.7583251    2.0903306   439061 
   21000    1.3748142   -2.7790135   -2.7790135  -0.71679685   0.46393948   -2.7790135    2.0622167   439061 
   22000    1.3603848   -2.7969066   -2.7969066  -0.75633393   0.45133972   -2.7969066    2.0405726   439061 
   23000    1.3511792   -2.8146346   -2.8146346  -0.78787043   0.45961073   -2.8146346    2.0267641   439061 
   24000    1.3460466   -2.8334356   -2.8334356  -0.81437026   0.46531245   -2.8334356    2.0190653   439061 
   25000    1.3396027   -2.8468944   -2.8468944  -0.83749494   0.46219375   -2.8468944    2.0093994   439061 
   26000    1.3336416   -2.8575046   -2.8575046   -0.8570467   0.45647331   -2.8575046    2.0004579   439061 
   27000    1.3237841   -2.8588087   -2.8588087  -0.87313708    0.4378641   -2.8588087    1.9856717   439061 
   28000     1.313102   -2.8555965   -2.8555965  -0.88594808   0.41845672   -2.8555965    1.9696485   439061 
   29000    1.2989477   -2.8439725   -2.8439725  -0.89555549      0.39502   -2.8439725    1.9484171   439061 
   30000     1.286299   -2.8327316   -2.8327316   -0.9032875   0.37689464   -2.8327316    1.9294441   439061 
   31000    1.2737767   -2.8192634   -2.8192634  -0.90860274   0.34390527   -2.8192634    1.9106607   439061 
   32000    1.2599294   -2.8036951   -2.8036951  -0.91380526   0.32544691   -2.8036951    1.8898898   439061 
   33000    1.2471634   -2.7862159   -2.7862159  -0.91547511   0.31213816   -2.7862159    1.8707408   439061 
   34000     1.236392   -2.7706707   -2.7706707  -0.91608698   0.28520708   -2.7706707    1.8545837   439061 
   35000     1.230144   -2.7613688   -2.7613688  -0.91615697    0.2719002   -2.7613688    1.8452119   439061 
   36000    1.2260403   -2.7523249   -2.7523249  -0.91326864   0.26862844   -2.7523249    1.8390563   439061 
   37000    1.2237616   -2.7467196   -2.7467196  -0.91108141   0.26418246   -2.7467196    1.8356381   439061 
   38000    1.2224427   -2.7417751   -2.7417751  -0.90811519   0.25758513   -2.7417751    1.8336599   439061 
   39000    1.2208778   -2.7367162   -2.7367162  -0.90540374   0.25019722   -2.7367162    1.8313125   439061 
   40000    1.2203495   -2.7339112   -2.7339112  -0.90339107   0.25349092   -2.7339112    1.8305201   439061 
   41000    1.2222904   -2.7322565   -2.7322565  -0.89882519   0.25929588   -2.7322565    1.8334313   439061 
   42000    1.2245714   -2.7318649   -2.7318649  -0.89501188   0.25974501   -2.7318649     1.836853   439061 
   43000    1.2252954   -2.7293284   -2.7293284  -0.89138941   0.25595798   -2.7293284     1.837939   439061 
   44000    1.2232943   -2.7224087   -2.7224087  -0.88747152   0.26141019   -2.7224087    1.8349372   439061 
   45000    1.2211485   -2.7174139   -2.7174139  -0.88569535   0.25113623   -2.7174139    1.8317186   439061 
   46000    1.2187338   -2.7104665   -2.7104665  -0.88236993   0.24707269   -2.7104665    1.8280965   439061 
   47000    1.2163585   -2.7059162   -2.7059162  -0.88138254    0.2368929   -2.7059162    1.8245336   439061 
   48000    1.2141352   -2.7033749   -2.7033749  -0.88217624   0.23698583   -2.7033749    1.8211987   439061 
   49000     1.216267   -2.7090728   -2.7090728  -0.88467639   0.24740708   -2.7090728    1.8243964   439061 
   50000     1.216812    -2.718578    -2.718578  -0.89336407   0.25397073    -2.718578    1.8252139   439061 
   51000    1.2150767    -2.727394    -2.727394  -0.90478307   0.26403403    -2.727394     1.822611   439061 
   52000    1.2151355   -2.7407157   -2.7407157  -0.91801651   0.26733821   -2.7407157    1.8226992   439061 
   53000    1.2098372    -2.746594    -2.746594  -0.93184228   0.27128486    -2.746594    1.8147517   439061 
   54000    1.2086688   -2.7560336   -2.7560336  -0.94303459   0.27188712   -2.7560336     1.812999   439061 
   55000    1.2066581   -2.7628152   -2.7628152   -0.9528322   0.27711195   -2.7628152     1.809983   439061 
   56000    1.2058745   -2.7711837   -2.7711837  -0.96237614   0.27505406   -2.7711837    1.8088076   439061 
   57000    1.2038306   -2.7781273   -2.7781273  -0.97238553    0.2777248   -2.7781273    1.8057417   439061 
   58000    1.2032751   -2.7837629   -2.7837629  -0.97885433   0.28041423   -2.7837629    1.8049086   439061 
   59000    1.2041988   -2.7926961   -2.7926961  -0.98640195   0.27496733   -2.7926961    1.8062941   439061 
   60000    1.2008931   -2.7933983   -2.7933983  -0.99206276   0.27143957   -2.7933983    1.8013355   439061 
   61000    1.1964371   -2.7925699   -2.7925699  -0.99791831   0.26699559   -2.7925699    1.7946516   439061 
   62000    1.1904807   -2.7890858   -2.7890858   -1.0033689   0.26365554   -2.7890858     1.785717   439061 
   63000    1.1872696   -2.7873955   -2.7873955   -1.0064951   0.25232844   -2.7873955    1.7809004   439061 
   64000    1.1813653   -2.7821845   -2.7821845   -1.0101405   0.24482449   -2.7821845    1.7720439   439061 
   65000    1.1765109   -2.7770409   -2.7770409   -1.0122785   0.23694888   -2.7770409    1.7647624   439061 
   66000    1.1711046   -2.7722817   -2.7722817   -1.0156287   0.22589972   -2.7722817     1.756653   439061 
   67000    1.1663719   -2.7661257   -2.7661257   -1.0165718   0.21684876   -2.7661257    1.7495539   439061 
   68000    1.1635838    -2.762059    -2.762059   -1.0166873   0.21517541    -2.762059    1.7453717   439061 
   69000    1.1601416   -2.7564094   -2.7564094   -1.0162009    0.2041004   -2.7564094    1.7402084   439061 
   70000    1.1569573   -2.7511216   -2.7511216   -1.0156897   0.21145849   -2.7511216    1.7354319   439061 
   71000    1.1562099    -2.748567    -2.748567   -1.0142561   0.20175803    -2.748567    1.7343109   439061 
   72000    1.1544793    -2.746457    -2.746457   -1.0147419   0.20245064    -2.746457    1.7317151   439061 
   73000    1.1524247   -2.7440772   -2.7440772   -1.0154441   0.19376992   -2.7440772    1.7286331   439061 
   74000    1.1526541   -2.7429235   -2.7429235   -1.0139463   0.18724856   -2.7429235    1.7289771   439061 
   75000    1.1531129   -2.7409487   -2.7409487   -1.0112833   0.19334363   -2.7409487    1.7296655   439061 
   76000    1.1523839   -2.7383927   -2.7383927   -1.0098207   0.19149093   -2.7383927     1.728572   439061 
   77000    1.1529808    -2.738403    -2.738403   -1.0089357   0.18787897    -2.738403    1.7294673   439061 
   78000    1.1518781   -2.7358655   -2.7358655   -1.0080524   0.18795401   -2.7358655    1.7278131   439061 
   79000     1.152341   -2.7362036   -2.7362036    -1.007696     0.185321   -2.7362036    1.7285076   439061 
   80000    1.1530771   -2.7378205   -2.7378205   -1.0082088    0.1855054   -2.7378205    1.7296117   439061 
   81000    1.1530933   -2.7351384   -2.7351384   -1.0055024   0.18451035   -2.7351384    1.7296361   439061 
   82000    1.1539603   -2.7374841   -2.7374841   -1.0065476   0.19000475   -2.7374841    1.7309365   439061 
   83000    1.1557552   -2.7414453   -2.7414453   -1.0078165    0.1909205   -2.7414453    1.7336288   439061 
   84000    1.1562264   -2.7439226   -2.7439226    -1.009587   0.19493028   -2.7439226    1.7343356   439061 
   85000    1.1543333   -2.7467879   -2.7467879    -1.015292    0.2007535   -2.7467879     1.731496   439061 
   86000     1.155037   -2.7549099   -2.7549099   -1.0223584    0.2022036   -2.7549099    1.7325516   439061 
   87000    1.1537528   -2.7597292   -2.7597292   -1.0291039   0.20749219   -2.7597292    1.7306253   439061 
   88000    1.1554095    -2.768377    -2.768377   -1.0352667    0.2035625    -2.768377    1.7331103   439061 
   89000    1.1536692   -2.7721739   -2.7721739   -1.0416741   0.21020435   -2.7721739    1.7304998   439061 
   90000    1.1533768   -2.7780325   -2.7780325   -1.0479713   0.21639779   -2.7780325    1.7300613   439061 
   91000    1.1543018   -2.7841415   -2.7841415   -1.0526926   0.21369855   -2.7841415    1.7314488   439061 
   92000    1.1537021   -2.7879426   -2.7879426   -1.0573935   0.21087897   -2.7879426    1.7305492   439061 
   93000    1.1536493   -2.7930121   -2.7930121   -1.0625422   0.21138723   -2.7930121      1.73047   439061 
   94000    1.1502441   -2.7931857   -2.7931857   -1.0678235   0.21450356   -2.7931857    1.7253623   439061 
   95000    1.1483429    -2.794149    -2.794149   -1.0716385   0.21164832    -2.794149    1.7225105   439061 
   96000    1.1460625   -2.7948073   -2.7948073   -1.0757175   0.21097003   -2.7948073    1.7190898   439061 
   97000    1.1464479   -2.7979527   -2.7979527   -1.0782849   0.20383833   -2.7979527    1.7196679   439061 
   98000     1.142945    -2.794847    -2.794847   -1.0804334   0.20385349    -2.794847    1.7144136   439061 
   99000    1.1396899    -2.793713    -2.793713    -1.084182   0.19942479    -2.793713    1.7095309   439061 
  100000    1.1361974   -2.7894025   -2.7894025   -1.0851103   0.19912142   -2.7894025    1.7042921   439061 
  101000    1.1329968   -2.7875542   -2.7875542   -1.0880629   0.19318333   -2.7875542    1.6994913   439061 
  102000    1.1323379   -2.7882467   -2.7882467   -1.0897436   0.18940655   -2.7882467     1.698503   439061 
  103000    1.1319375   -2.7871834   -2.7871834   -1.0892811   0.18216914   -2.7871834    1.6979023   439061 
  104000    1.1296359   -2.7847225   -2.7847225   -1.0902725   0.18089122   -2.7847225      1.69445   439061 
  105000    1.1287389   -2.7834336   -2.7834336   -1.0903291   0.17626349   -2.7834336    1.6931045   439061 
  106000    1.1256084   -2.7801252   -2.7801252   -1.0917165     0.176001   -2.7801252    1.6884087   439061 
  107000    1.1245288   -2.7782905   -2.7782905   -1.0915012   0.17017663   -2.7782905    1.6867893   439061 
  108000    1.1215966   -2.7741761   -2.7741761   -1.0917851   0.16782571   -2.7741761     1.682391   439061 
  109000    1.1202047   -2.7720905   -2.7720905   -1.0917872   0.16946461   -2.7720905    1.6803033   439061 
  110000    1.1210679    -2.773086    -2.773086   -1.0914879   0.16562962    -2.773086    1.6815981   439061 
  111000     1.120223    -2.771459    -2.771459   -1.0911283   0.16397577    -2.771459    1.6803307   439061 
  112000    1.1211098   -2.7735171   -2.7735171   -1.0918562   0.16626499   -2.7735171    1.6816609   439061 
  113000    1.1206219   -2.7738535   -2.7738535   -1.0929245   0.16299248   -2.7738535     1.680929   439061 
  114000    1.1210336   -2.7747803   -2.7747803   -1.0932337   0.15958923   -2.7747803    1.6815466   439061 
  115000    1.1214479   -2.7761358   -2.7761358   -1.0939678   0.16435898   -2.7761358     1.682168   439061 
  116000    1.1233845   -2.7800118   -2.7800118   -1.0949389   0.15991046   -2.7800118    1.6850729   439061 
  117000    1.1209656   -2.7791225   -2.7791225   -1.0976778   0.16426817   -2.7791225    1.6814446   439061 
  118000    1.1216338   -2.7810776   -2.7810776   -1.0986307   0.16831697   -2.7810776    1.6824469   439061 
  119000    1.1225017   -2.7837349   -2.7837349   -1.0999861   0.16634978   -2.7837349    1.6837488   439061 
  120000    1.1212552   -2.7844375   -2.7844375   -1.1025585   0.16923025   -2.7844375     1.681879   439061 
  121000    1.1223713   -2.7886498   -2.7886498   -1.1050967   0.17611006   -2.7886498    1.6835531   439061 
  122000    1.1223652   -2.7926095   -2.7926095   -1.1090655   0.17491087   -2.7926095     1.683544   439061 
  123000    1.1212542   -2.7946039   -2.7946039   -1.1127263   0.17725019   -2.7946039    1.6818775   439061 
  124000    1.1221357   -2.8006373   -2.8006373   -1.1174377   0.17939232   -2.8006373    1.6831997   439061 
  125000    1.1234028   -2.8071771   -2.8071771   -1.1220767   0.17748924   -2.8071771    1.6851004   439061 
  126000    1.1213847    -2.808772    -2.808772   -1.1266988   0.17891175    -2.808772    1.6820732   439061 
  127000    1.1232841   -2.8149302   -2.8149302   -1.1300078   0.17521642   -2.8149302    1.6849223   439061 
  128000     1.121208   -2.8140711   -2.8140711   -1.1322628   0.18168617   -2.8140711    1.6818082   439061 
  129000    1.1187777   -2.8131251   -2.8131251   -1.1349624   0.18178292   -2.8131251    1.6781628   439061 
  130000    1.1182073   -2.8163861   -2.8163861    -1.139079   0.18128771   -2.8163861    1.6773071   439061 
  131000    1.1144857   -2.8136472   -2.8136472   -1.1419225   0.18276762   -2.8136472    1.6717247   439061 
  132000     1.116256    -2.818464    -2.818464   -1.1440837   0.17602996    -2.818464    1.6743802   439061 
  133000     1.114037   -2.8174272   -2.8174272   -1.1463755   0.17166183   -2.8174272    1.6710517   439061 
  134000     1.112795   -2.8176783   -2.8176783   -1.1484896   0.16997963   -2.8176783    1.6691887   439061 
  135000    1.1114274   -2.8178664   -2.8178664   -1.1507291   0.16725413   -2.8178664    1.6671373   439061 
  136000    1.1110769   -2.8186797   -2.8186797   -1.1520682   0.16913037   -2.8186797    1.6666115   439061 
  137000     1.108891   -2.8177552   -2.8177552   -1.1544225   0.16606878   -2.8177552    1.6633327   439061 
  138000    1.1078672   -2.8169738   -2.8169738   -1.1551767   0.16722382   -2.8169738    1.6617971   439061 
  139000    1.1070546   -2.8145591   -2.8145591   -1.1539811   0.16307061   -2.8145591    1.6605781   439061 
  140000    1.1051716   -2.8129361   -2.8129361   -1.1551824   0.16051352   -2.8129361    1.6577537   439061 
  141000    1.1044239    -2.811922    -2.811922   -1.1552899   0.15894142    -2.811922    1.6566321   439061 
  142000     1.102608   -2.8106711   -2.8106711   -1.1567628   0.15173553   -2.8106711    1.6539082   439061 
  143000    1.1008507   -2.8098561   -2.8098561   -1.1585838   0.15081077   -2.8098561    1.6512723   439061 
  144000     1.102384   -2.8116404   -2.8116404   -1.1580681   0.15323265   -2.8116404    1.6535723   439061 
  145000    1.0999715   -2.8091665   -2.8091665    -1.159213   0.15539097   -2.8091665    1.6499534   439061 
  146000    1.0986814   -2.8088411   -2.8088411   -1.1608227   0.14600378   -2.8088411    1.6480184   439061 
  147000    1.0979188   -2.8092412   -2.8092412   -1.1623667   0.14920458   -2.8092412    1.6468744   439061 
  148000    1.0990972   -2.8119684   -2.8119684   -1.1633263   0.15247642   -2.8119684    1.6486421   439061 
  149000    1.0980347    -2.810998    -2.810998   -1.1639497     0.150069    -2.810998    1.6470483   439061 
  150000    1.0996875   -2.8125498   -2.8125498   -1.1630222    0.1500209   -2.8125498    1.6495275   439061 
  151000    1.0993479   -2.8136955   -2.8136955   -1.1646773   0.15093501   -2.8136955    1.6490181   439061 
  152000    1.0978605   -2.8134418   -2.8134418   -1.1666549    0.1520356   -2.8134418    1.6467869   439061 
  153000    1.1000554    -2.817849    -2.817849   -1.1677697   0.15025125    -2.817849    1.6500793   439061 
  154000    1.0970348   -2.8130601   -2.8130601   -1.1675116    0.1537005   -2.8130601    1.6455485   439061 
  155000    1.0991167   -2.8188458   -2.8188458   -1.1701745   0.15344899   -2.8188458    1.6486713   439061 
  156000    1.0991431   -2.8211451   -2.8211451   -1.1724342   0.15371286   -2.8211451    1.6487109   439061 
  157000    1.0992135   -2.8222799   -2.8222799   -1.1734634   0.15467679   -2.8222799    1.6488165   439061 
  158000    1.0995298   -2.8248513   -2.8248513   -1.1755605   0.15620448   -2.8248513    1.6492909   439061 
  159000    1.1001015   -2.8281736   -2.8281736   -1.1780251   0.15326742   -2.8281736    1.6501485   439061 
  160000    1.0994711   -2.8297331   -2.8297331   -1.1805302   0.15615815   -2.8297331    1.6492029   439061 
  161000    1.0996677   -2.8336021   -2.8336021   -1.1841044   0.15500557   -2.8336021    1.6494978   439061 
  162000    1.0985876   -2.8344608   -2.8344608   -1.1865831   0.15988542   -2.8344608    1.6478777   439061 
  163000    1.0984848   -2.8376713   -2.8376713   -1.1899478   0.15995421   -2.8376713    1.6477235   439061 
  164000    1.0974984   -2.8398719   -2.8398719   -1.1936282   0.15978067   -2.8398719    1.6462438   439061 
  165000    1.0972172   -2.8417178   -2.8417178   -1.1958957   0.15779499   -2.8417178    1.6458221   439061 
  166000    1.0952043   -2.8394279   -2.8394279   -1.1966252   0.15746028   -2.8394279    1.6428027   439061 
  167000    1.0970525   -2.8443828   -2.8443828   -1.1988078   0.15738904   -2.8443828     1.645575   439061 
  168000    1.0960123   -2.8446221   -2.8446221   -1.2006074   0.15744861   -2.8446221    1.6440148   439061 
  169000    1.0945684   -2.8462937   -2.8462937   -1.2044448   0.15448924   -2.8462937    1.6418489   439061 
  170000    1.0948404   -2.8458483   -2.8458483   -1.2035914   0.15697703   -2.8458483    1.6422569   439061 
  171000    1.0910206   -2.8440803   -2.8440803   -1.2075532   0.15400725   -2.8440803    1.6365271   439061 
  172000    1.0911126   -2.8451582   -2.8451582    -1.208493    0.1524509   -2.8451582    1.6366652   439061 
  173000    1.0899348   -2.8446537   -2.8446537   -1.2097553   0.15555594   -2.8446537    1.6348984   439061 
  174000    1.0891426   -2.8452379   -2.8452379   -1.2115278   0.15331534   -2.8452379    1.6337101   439061 
  175000    1.0881302    -2.844924    -2.844924   -1.2127323    0.1552601    -2.844924    1.6321916   439061 
  176000    1.0888797   -2.8478772   -2.8478772   -1.2145613   0.14729637   -2.8478772    1.6333159   439061 
  177000    1.0855102   -2.8451848   -2.8451848   -1.2169232   0.14342375   -2.8451848    1.6282616   439061 
  178000    1.0851769   -2.8462405   -2.8462405   -1.2184788   0.14543803   -2.8462405    1.6277617   439061 
  179000    1.0849061   -2.8467727   -2.8467727   -1.2194174   0.14127412   -2.8467727    1.6273554   439061 
  180000    1.0846207   -2.8470636   -2.8470636   -1.2201363   0.14302452   -2.8470636    1.6269274   439061 
  181000    1.0825484    -2.845583    -2.845583    -1.221764   0.13945185    -2.845583     1.623819   439061 
  182000    1.0839274   -2.8488535   -2.8488535   -1.2229662   0.13775683   -2.8488535    1.6258873   439061 
  183000    1.0826016   -2.8477366   -2.8477366   -1.2238378   0.13546135   -2.8477366    1.6238987   439061 
  184000    1.0819849   -2.8480188   -2.8480188   -1.2250452   0.13722512   -2.8480188    1.6229736   439061 
  185000    1.0828712   -2.8493688   -2.8493688   -1.2250657   0.13685905   -2.8493688    1.6243032   439061 
  186000    1.0813234   -2.8480387   -2.8480387   -1.2260573   0.13232073   -2.8480387    1.6219814   439061 
  187000    1.0821866   -2.8509905   -2.8509905   -1.2277142   0.13571447   -2.8509905    1.6232763   439061 
  188000     1.081657   -2.8508775   -2.8508775   -1.2283957   0.13898617   -2.8508775    1.6224818   439061 
  189000     1.082159   -2.8531509   -2.8531509   -1.2299162    0.1443014   -2.8531509    1.6232348   439061 
  190000    1.0818986    -2.854891    -2.854891   -1.2320468   0.14153737    -2.854891    1.6228442   439061 
  191000    1.0805779    -2.855595    -2.855595   -1.2347318   0.14082766    -2.855595    1.6208632   439061 
  192000    1.0811401   -2.8576537   -2.8576537   -1.2359472   0.14061156   -2.8576537    1.6217065   439061 
  193000    1.0812221   -2.8601433   -2.8601433   -1.2383138   0.14202841   -2.8601433    1.6218295   439061 
  194000    1.0809972   -2.8611585   -2.8611585   -1.2396664   0.14234315   -2.8611585    1.6214922   439061 
  195000    1.0792762   -2.8619042   -2.8619042   -1.2429936    0.1388105   -2.8619042    1.6189106   439061 
  196000    1.0814099   -2.8655947   -2.8655947   -1.2434835   0.13713075   -2.8655947    1.6221111   439061 
  197000     1.081409    -2.869298    -2.869298   -1.2471882   0.13559859    -2.869298    1.6221098   439061 
  198000    1.0780379   -2.8657867   -2.8657867   -1.2487336   0.14120488   -2.8657867    1.6170532   439061 
  199000     1.077772   -2.8657501   -2.8657501   -1.2490957   0.14673881   -2.8657501    1.6166544   439061 
  200000    1.0797969   -2.8719328   -2.8719328    -1.252241   0.14368028   -2.8719328    1.6196917   439061 
  201000     1.079117    -2.872882    -2.872882   -1.2542103   0.14604771    -2.872882    1.6186718   439061 
  202000    1.0782019   -2.8723523   -2.8723523   -1.2550531   0.14839596   -2.8723523    1.6172992   439061 
  203000    1.0784536   -2.8753575   -2.8753575   -1.2576808   0.14486024   -2.8753575    1.6176767   439061 
  204000    1.0765034   -2.8742981   -2.8742981   -1.2595467   0.14065069   -2.8742981    1.6147514   439061 
  205000    1.0775096   -2.8786609   -2.8786609   -1.2624002   0.14193743   -2.8786609    1.6162607   439061 
  206000    1.0737295   -2.8752219   -2.8752219   -1.2646313   0.14545138   -2.8752219    1.6105906   439061 
  207000    1.0741913   -2.8768349   -2.8768349   -1.2655516   0.14073229   -2.8768349    1.6112833   439061 
  208000    1.0734379   -2.8768221   -2.8768221   -1.2666689   0.14153377   -2.8768221    1.6101531   439061 
  209000    1.0740857   -2.8790523   -2.8790523   -1.2679274     0.138427   -2.8790523    1.6111249   439061 
  210000    1.0730061   -2.8788217   -2.8788217   -1.2693162   0.13239414   -2.8788217    1.6095055   439061 
  211000    1.0704108   -2.8767945   -2.8767945   -1.2711819   0.13693031   -2.8767945    1.6056125   439061 
  212000    1.0716988   -2.8796967   -2.8796967   -1.2721521   0.13373184   -2.8796967    1.6075446   439061 
  213000    1.0695164   -2.8798625   -2.8798625   -1.2755915   0.13280635   -2.8798625     1.604271   439061 
  214000    1.0724402   -2.8835781   -2.8835781   -1.2749214   0.13179624   -2.8835781    1.6086566   439061 
  215000    1.0704544   -2.8833367   -2.8833367   -1.2776588   0.13249485   -2.8833367    1.6056779   439061 
  216000    1.0698232   -2.8832379   -2.8832379   -1.2785068   0.13454287   -2.8832379    1.6047311   439061 
  217000    1.0702476   -2.8850405   -2.8850405   -1.2796727   0.13505225   -2.8850405    1.6053678   439061 
  218000    1.0692036   -2.8845912   -2.8845912   -1.2807894   0.13551116   -2.8845912    1.6038018   439061 
  219000    1.0698953   -2.8871878   -2.8871878   -1.2823484   0.13981683   -2.8871878    1.6048394   439061 
  220000    1.0684663    -2.885828    -2.885828   -1.2831322   0.13347311    -2.885828    1.6026958   439061 
  221000    1.0668896   -2.8841531   -2.8841531   -1.2838224   0.13380427   -2.8841531    1.6003307   439061 
  222000    1.0673592   -2.8871322   -2.8871322    -1.286097    0.1330204   -2.8871322    1.6010352   439061 
  223000    1.0668229    -2.888134    -2.888134   -1.2879033   0.12720187    -2.888134    1.6002308   439061 
  224000    1.0651534   -2.8875221   -2.8875221   -1.2897956   0.13314481   -2.8875221    1.5977265   439061 
  225000    1.0651534   -2.8897014   -2.8897014    -1.291975   0.12705583   -2.8897014    1.5977264   439061 
  226000    1.0651865   -2.8926747   -2.8926747   -1.2948985    0.1270265   -2.8926747    1.5977762   439061 
  227000    1.0624848   -2.8905869   -2.8905869   -1.2968634   0.13148417   -2.8905869    1.5937235   439061 
  228000    1.0644633   -2.8937291   -2.8937291   -1.2970378   0.12916202   -2.8937291    1.5966913   439061 
  229000    1.0649203   -2.8961235   -2.8961235   -1.2987467   0.13187104   -2.8961235    1.5973768   439061 
  230000    1.0660284   -2.8979261   -2.8979261   -1.2988871   0.12880748   -2.8979261     1.599039   439061 
  231000     1.065721   -2.8994246   -2.8994246   -1.3008468   0.13294155   -2.8994246    1.5985778   439061 
  232000    1.0637871   -2.8984842   -2.8984842   -1.3028073   0.13258564   -2.8984842    1.5956769   439061 
  233000    1.0646538   -2.9011824   -2.9011824   -1.3042054   0.13148551   -2.9011824     1.596977   439061 
  234000    1.0634747   -2.9012416   -2.9012416   -1.3060332   0.13310802   -2.9012416    1.5952084   439061 
  235000    1.0647159   -2.9040854   -2.9040854   -1.3070151   0.13197985   -2.9040854    1.5970702   439061 
  236000    1.0639505   -2.9053157   -2.9053157   -1.3093937   0.12899385   -2.9053157    1.5959221   439061 
  237000    1.0620743   -2.9040768   -2.9040768    -1.310969    0.1321388   -2.9040768    1.5931078   439061 
  238000    1.0620297   -2.9049818   -2.9049818   -1.3119409   0.13400926   -2.9049818    1.5930409   439061 
  239000    1.0612558   -2.9041631   -2.9041631    -1.312283   0.13236203   -2.9041631    1.5918801   439061 
  240000    1.0621169   -2.9062447   -2.9062447    -1.313073   0.13229954   -2.9062447    1.5931717   439061 
  241000    1.0615469   -2.9075358   -2.9075358    -1.315219   0.13119477   -2.9075358    1.5923167   439061 
  242000    1.0624366   -2.9093369   -2.9093369   -1.3156857   0.13146112   -2.9093369    1.5936512   439061 
  243000    1.0620883   -2.9117651   -2.9117651   -1.3186363   0.13022824   -2.9117651    1.5931288   439061 
  244000    1.0598109   -2.9111998   -2.9111998    -1.321487   0.13063675   -2.9111998    1.5897128   439061 
  245000    1.0579541   -2.9111957   -2.9111957   -1.3242681   0.13128001   -2.9111957    1.5869276   439061 
  246000    1.0588587   -2.9149872   -2.9149872   -1.3267028   0.12226578   -2.9149872    1.5882844   439061 
  247000    1.0592808   -2.9162431   -2.9162431   -1.3273255   0.12540535   -2.9162431    1.5889176   439061 
  248000    1.0583182   -2.9159937   -2.9159937     -1.32852   0.12741501   -2.9159937    1.5874736   439061 
  249000    1.0592186   -2.9192949   -2.9192949   -1.3304705   0.12570233   -2.9192949    1.5888243   439061 
  250000    1.0574339   -2.9180729   -2.9180729   -1.3319256   0.12622241   -2.9180729    1.5861472   439061 
  251000    1.0548033   -2.9159461   -2.9159461   -1.3337447   0.12677621   -2.9159461    1.5822014   439061 
  252000    1.0545659   -2.9178542   -2.9178542   -1.3360089   0.12355448   -2.9178542    1.5818453   439061 
  253000     1.055518   -2.9215681   -2.9215681   -1.3382947   0.12354024   -2.9215681    1.5832734   439061 
  254000    1.0552689   -2.9218677   -2.9218677   -1.3389681   0.12101781   -2.9218677    1.5828997   439061 
  255000    1.0547717   -2.9232851   -2.9232851   -1.3411312   0.12567077   -2.9232851    1.5821539   439061 
  256000    1.0551589   -2.9251133   -2.9251133   -1.3423785   0.12221242   -2.9251133    1.5827348   439061 
  257000    1.0540089   -2.9241794   -2.9241794   -1.3431696   0.12833318   -2.9241794    1.5810098   439061 
  258000    1.0543146   -2.9272724   -2.9272724   -1.3458042   0.12283008   -2.9272724    1.5814683   439061 
  259000    1.0539113   -2.9271331   -2.9271331   -1.3462697    0.1231595   -2.9271331    1.5808634   439061 
  260000    1.0522283   -2.9259689   -2.9259689     -1.34763   0.12352273   -2.9259689    1.5783389   439061 
  261000    1.0503401   -2.9254563   -2.9254563   -1.3499498   0.12474658   -2.9254563    1.5755065   439061 
  262000     1.051243   -2.9274358   -2.9274358   -1.3505749   0.12060381   -2.9274358    1.5768609   439061 
  263000    1.0517557   -2.9305017   -2.9305017   -1.3528717   0.11965621   -2.9305017      1.57763   439061 
  264000    1.0506625   -2.9292274   -2.9292274   -1.3532373   0.12571318   -2.9292274    1.5759901   439061 
  265000    1.0529174   -2.9336409   -2.9336409   -1.3542684     0.121086   -2.9336409    1.5793725   439061 
  266000    1.0510545   -2.9340173   -2.9340173   -1.3574391   0.12015155   -2.9340173    1.5765782   439061 
  267000    1.0519838   -2.9360049   -2.9360049   -1.3580328   0.12254242   -2.9360049    1.5779722   439061 
  268000    1.0508653   -2.9349489   -2.9349489   -1.3586545   0.12573072   -2.9349489    1.5762944   439061 
  269000    1.0502963   -2.9365138   -2.9365138   -1.3610729   0.12488042   -2.9365138    1.5754408   439061 
  270000    1.0510557   -2.9397587   -2.9397587   -1.3631787   0.12197522   -2.9397587      1.57658   439061 
  271000     1.049911   -2.9401048   -2.9401048   -1.3652419   0.12633751   -2.9401048    1.5748629   439061 
  272000    1.0506779   -2.9421947   -2.9421947   -1.3661814   0.12260837   -2.9421947    1.5760133   439061 
  273000    1.0501506   -2.9441569   -2.9441569   -1.3689346   0.12752211   -2.9441569    1.5752223   439061 
  274000    1.0491577   -2.9438226   -2.9438226   -1.3700896     0.122432   -2.9438226     1.573733   439061 
  275000    1.0483253   -2.9441393   -2.9441393    -1.371655   0.11784566   -2.9441393    1.5724843   439061 
  276000    1.0476611   -2.9446627   -2.9446627   -1.3731746   0.12521682   -2.9446627    1.5714881   439061 
  277000    1.0480438    -2.946843    -2.946843   -1.3747809   0.12345274    -2.946843    1.5720621   439061 
  278000     1.047665   -2.9469554   -2.9469554   -1.3754616   0.12038526   -2.9469554    1.5714939   439061 
  279000    1.0472192   -2.9474353   -2.9474353   -1.3766101   0.11789499   -2.9474353    1.5708252   439061 
  280000    1.0458283   -2.9478561   -2.9478561   -1.3791172   0.11406239   -2.9478561    1.5687389   439061 
  281000    1.0458262   -2.9504589   -2.9504589   -1.3817232   0.11510996   -2.9504589    1.5687358   439061 
  282000    1.0443595   -2.9504261   -2.9504261   -1.3838904   0.11830275   -2.9504261    1.5665357   439061 
  283000    1.0450656    -2.953234    -2.953234   -1.3856392   0.11573949    -2.953234    1.5675948   439061 
  284000     1.044824   -2.9544714   -2.9544714    -1.387239   0.11720174   -2.9544714    1.5672324   439061 
  285000    1.0439679   -2.9567157   -2.9567157   -1.3907675   0.11921669   -2.9567157    1.5659483   439061 
  286000    1.0437892   -2.9554451   -2.9554451   -1.3897648   0.12029352   -2.9554451    1.5656803   439061 
  287000    1.0440928   -2.9583957   -2.9583957     -1.39226   0.11322569   -2.9583957    1.5661357   439061 
  288000    1.0423673   -2.9588148   -2.9588148   -1.3952674   0.11885247   -2.9588148    1.5635473   439061 
  289000    1.0406007   -2.9586603   -2.9586603   -1.3977629    0.1158109   -2.9586603    1.5608975   439061 
  290000    1.0412276   -2.9611425   -2.9611425   -1.3993046   0.11795308   -2.9611425    1.5618379   439061 
  291000    1.0409897   -2.9625031   -2.9625031   -1.4010221     0.122556   -2.9625031    1.5614809   439061 
  292000     1.040575   -2.9641182   -2.9641182   -1.4032592    0.1198805   -2.9641182     1.560859   439061 
  293000    1.0399361   -2.9645906   -2.9645906     -1.40469   0.11683935   -2.9645906    1.5599006   439061 
  294000    1.0399856   -2.9650793   -2.9650793   -1.4051045   0.12156289   -2.9650793    1.5599748   439061 
  295000    1.0401144   -2.9666809   -2.9666809   -1.4065128   0.11842811   -2.9666809     1.560168   439061 
  296000    1.0377815   -2.9658949   -2.9658949   -1.4092261   0.11743041   -2.9658949    1.5566687   439061 
  297000    1.0397762   -2.9707504   -2.9707504   -1.4110896   0.11525781   -2.9707504    1.5596607   439061 
  298000    1.0375798   -2.9687115   -2.9687115   -1.4123453   0.11896272   -2.9687115    1.5563661   439061 
  299000    1.0384814    -2.972087    -2.972087   -1.4143685   0.11199026    -2.972087    1.5577185   439061 
  300000    1.0372611   -2.9702267   -2.9702267   -1.4143386   0.11767859   -2.9702267    1.5558881   439061 
  301000    1.0379622   -2.9733447   -2.9733447    -1.416405   0.11685241   -2.9733447    1.5569397   439061 
  302000    1.0367211    -2.973049    -2.973049   -1.4179709   0.11714176    -2.973049    1.5550781   439061 
  303000    1.0363899   -2.9747127   -2.9747127   -1.4201314   0.11864155   -2.9747127    1.5545812   439061 
  304000    1.0359838   -2.9775116   -2.9775116   -1.4235394   0.11669127   -2.9775116    1.5539722   439061 
  305000    1.0359949   -2.9773392   -2.9773392   -1.4233504   0.11302714   -2.9773392    1.5539888   439061 
  306000     1.037245   -2.9806047   -2.9806047   -1.4247407   0.11519486   -2.9806047    1.5558639   439061 
  307000     1.036197   -2.9799582   -2.9799582   -1.4256663   0.12054114   -2.9799582    1.5542919   439061 
  308000    1.0353947   -2.9811643   -2.9811643   -1.4280759    0.1129705   -2.9811643    1.5530885   439061 
  309000    1.0340979    -2.981175    -2.981175   -1.4300317   0.11100756    -2.981175    1.5511433   439061 
  310000    1.0348946    -2.984336    -2.984336   -1.4319977   0.11084811    -2.984336    1.5523383   439061 
  311000    1.0337644   -2.9837011   -2.9837011    -1.433058   0.10870785   -2.9837011     1.550643   439061 
  312000    1.0329821   -2.9843039   -2.9843039   -1.4348342   0.10897947   -2.9843039    1.5494697   439061 
  313000    1.0332544   -2.9868464   -2.9868464   -1.4369684   0.11507609   -2.9868464     1.549878   439061 
  314000    1.0359142   -2.9916664   -2.9916664   -1.4377986   0.11249719   -2.9916664    1.5538678   439061 
  315000    1.0329705   -2.9892872   -2.9892872   -1.4398349   0.11387718   -2.9892872    1.5494522   439061 
  316000    1.0327573   -2.9905142   -2.9905142   -1.4413819   0.11482625   -2.9905142    1.5491324   439061 
  317000     1.032353   -2.9911428   -2.9911428   -1.4426167   0.11190945   -2.9911428     1.548526   439061 
  318000    1.0329253   -2.9937708   -2.9937708   -1.4443864   0.11540321   -2.9937708    1.5493844   439061 
  319000    1.0308923   -2.9923147   -2.9923147   -1.4459798   0.11523098   -2.9923147    1.5463349   439061 
  320000    1.0329686   -2.9966612   -2.9966612   -1.4472118   0.11315096   -2.9966612    1.5494494   439061 
  321000    1.0315381   -2.9957837   -2.9957837     -1.44848   0.11066438   -2.9957837    1.5473037   439061 
  322000    1.0309986   -2.9976809   -2.9976809   -1.4511865   0.11118885   -2.9976809    1.5464944   439061 
  323000    1.0299498   -2.9968697   -2.9968697   -1.4519485   0.11211049   -2.9968697    1.5449212   439061 
  324000    1.0308901    -2.999268    -2.999268   -1.4529365   0.11425272    -2.999268    1.5463316   439061 
  325000    1.0305467   -2.9994202   -2.9994202   -1.4536037   0.11741959   -2.9994202    1.5458165   439061 
  326000    1.0302417   -3.0007081   -3.0007081   -1.4553491    0.1077152   -3.0007081     1.545359   439061 
  327000    1.0293548   -3.0011076   -3.0011076   -1.4570789   0.11128651   -3.0011076    1.5440287   439061 
  328000    1.0290608   -3.0023687   -3.0023687   -1.4587811    0.1089903   -3.0023687    1.5435876   439061 
  329000    1.0293388   -3.0045579   -3.0045579   -1.4605532   0.11242585   -3.0045579    1.5440047   439061 
  330000    1.0278313   -3.0052458   -3.0052458   -1.4635024   0.10798887   -3.0052458    1.5417434   439061 
  331000    1.0275838   -3.0055592   -3.0055592    -1.464187   0.10756557   -3.0055592    1.5413722   439061 
  332000    1.0268361   -3.0054162   -3.0054162   -1.4651655   0.11045491   -3.0054162    1.5402507   439061 
  333000    1.0280257   -3.0084127   -3.0084127   -1.4663776   0.11018685   -3.0084127    1.5420351   439061 
  334000    1.0291725   -3.0113702   -3.0113702   -1.4676149   0.10784516   -3.0113702    1.5437552   439061 
  335000    1.0244352   -3.0066995   -3.0066995   -1.4700502   0.11369234   -3.0066995    1.5366493   439061 
  336000    1.0264796   -3.0116043   -3.0116043   -1.4718884   0.10970617   -3.0116043    1.5397159   439061 
  337000    1.0256978   -3.0120645   -3.0120645   -1.4735213   0.10597172   -3.0120645    1.5385432   439061 
  338000    1.0244997   -3.0140567   -3.0140567   -1.4773106   0.10877871   -3.0140567    1.5367461   439061 
  339000    1.0240116   -3.0147872   -3.0147872   -1.4787732   0.10565321   -3.0147872     1.536014   439061 
  340000    1.0229415   -3.0145339   -3.0145339   -1.4801252   0.10939474   -3.0145339    1.5344087   439061 
  341000    1.0245972    -3.017161    -3.017161   -1.4802687   0.09885017    -3.017161    1.5368923   439061 
  342000    1.0233967   -3.0166922   -3.0166922   -1.4816007    0.1049076   -3.0166922    1.5350916   439061 
  343000    1.0235218   -3.0184023   -3.0184023    -1.483123    0.1020995   -3.0184023    1.5352793   439061 
  344000    1.0226915   -3.0186836   -3.0186836   -1.4846499   0.10606482   -3.0186836    1.5340337   439061 
  345000    1.0232105   -3.0207789   -3.0207789   -1.4859666   0.10734333   -3.0207789    1.5348123   439061 
  346000    1.0223089   -3.0221056   -3.0221056   -1.4886459   0.11032762   -3.0221056    1.5334598   439061 
  347000    1.0215834   -3.0232717   -3.0232717   -1.4909002   0.11150905   -3.0232717    1.5323715   439061 
  348000    1.0219449   -3.0249667   -3.0249667   -1.4920529   0.10637913   -3.0249667    1.5329138   439061 
  349000    1.0226567   -3.0272263   -3.0272263   -1.4932447   0.10767261   -3.0272263    1.5339816   439061 
  350000    1.0222285   -3.0282347   -3.0282347   -1.4948954   0.11270387   -3.0282347    1.5333393   439061 
  351000    1.0219371   -3.0289182   -3.0289182   -1.4960161   0.10720895   -3.0289182    1.5329021   439061 
  352000    1.0213025   -3.0300075   -3.0300075   -1.4980573   0.10627645   -3.0300075    1.5319502   439061 
  353000    1.0214759   -3.0328234   -3.0328234    -1.500613   0.10460564   -3.0328234    1.5322104   439061 
  354000     1.022486   -3.0339696   -3.0339696   -1.5002441   0.10875002   -3.0339696    1.5337255   439061 
  355000    1.0219478   -3.0343788   -3.0343788   -1.5014606    0.1010826   -3.0343788    1.5329182   439061 
  356000    1.0193784    -3.032385    -3.032385   -1.5033208   0.10854252    -3.032385    1.5290642   439061 
  357000    1.0190114   -3.0330283   -3.0330283   -1.5045147   0.10987468   -3.0330283    1.5285136   439061 
  358000    1.0183241   -3.0343191   -3.0343191   -1.5068364   0.10807984   -3.0343191    1.5274827   439061 
  359000    1.0190655   -3.0384453   -3.0384453   -1.5098505  0.099889403   -3.0384453    1.5285948   439061 
  360000    1.0170583   -3.0369895   -3.0369895   -1.5114055   0.10175737   -3.0369895    1.5255839   439061 
  361000    1.0177802   -3.0392051   -3.0392051   -1.5125382   0.09825287   -3.0392051    1.5266669   439061 
  362000     1.017566   -3.0413154   -3.0413154   -1.5149698  0.099423674   -3.0413154    1.5263456   439061 
  363000     1.019066   -3.0440788   -3.0440788   -1.5154833   0.10590152   -3.0440788    1.5285955   439061 
  364000    1.0188263   -3.0443782   -3.0443782   -1.5161422  0.098577806   -3.0443782     1.528236   439061 
  365000    1.0188873    -3.045787    -3.045787   -1.5174596    0.1011758    -3.045787    1.5283275   439061 
  366000    1.0176647   -3.0450827   -3.0450827   -1.5185892   0.10112677   -3.0450827    1.5264935   439061 
  367000    1.0179249   -3.0455376   -3.0455376   -1.5186536   0.10798512   -3.0455376    1.5268839   439061 
  368000    1.0176053   -3.0483914   -3.0483914   -1.5219869     0.110424   -3.0483914    1.5264045   439061 
  369000    1.0144932   -3.0471244   -3.0471244    -1.525388   0.10606844   -3.0471244    1.5217364   439061 
  370000    1.0148769   -3.0501193   -3.0501193   -1.5278075   0.10340045   -3.0501193    1.5223119   439061 
  371000    1.0144693   -3.0516842   -3.0516842   -1.5299837   0.10008543   -3.0516842    1.5217005   439061 
  372000    1.0118042   -3.0494541   -3.0494541   -1.5317513   0.10113498   -3.0494541    1.5177028   439061 
  373000    1.0140723   -3.0535607   -3.0535607   -1.5324557    0.1071871   -3.0535607     1.521105   439061 
  374000    1.0130795   -3.0528605   -3.0528605   -1.5332447   0.10545974   -3.0528605    1.5196158   439061 
  375000    1.0145329   -3.0567175   -3.0567175   -1.5349216   0.10257292   -3.0567175    1.5217959   439061 
  376000    1.0136581   -3.0576577   -3.0576577   -1.5371739   0.10323242   -3.0576577    1.5204837   439061 
  377000    1.0139246   -3.0581944   -3.0581944    -1.537311   0.10022383   -3.0581944    1.5208834   439061 
  378000    1.0136871   -3.0611438   -3.0611438   -1.5406166   0.10210454   -3.0611438    1.5205272   439061 
  379000    1.0121903   -3.0596761   -3.0596761   -1.5413941   0.10572247   -3.0596761     1.518282   439061 
  380000    1.0135321    -3.061039    -3.061039   -1.5407443    0.1046873    -3.061039    1.5202947   439061 
  381000    1.0127257   -3.0616146   -3.0616146   -1.5425296    0.1066281   -3.0616146     1.519085   439061 
  382000    1.0115004   -3.0631639   -3.0631639   -1.5459167   0.10040455   -3.0631639    1.5172471   439061 
  383000    1.0123229   -3.0637176   -3.0637176   -1.5452368   0.10567236   -3.0637176    1.5184808   439061 
  384000    1.0119356   -3.0649131   -3.0649131   -1.5470131  0.097172828   -3.0649131       1.5179   439061 
  385000    1.0106584    -3.064956    -3.064956   -1.5489718   0.10316813    -3.064956    1.5159842   439061 
  386000    1.0101828   -3.0664904   -3.0664904   -1.5512197  0.098954693   -3.0664904    1.5152707   439061 
  387000    1.0102528    -3.068168    -3.068168   -1.5527923  0.096669422    -3.068168    1.5153757   439061 
  388000    1.0088603   -3.0683813   -3.0683813   -1.5550943  0.098908606   -3.0683813     1.513287   439061 
  389000    1.0104884   -3.0706533   -3.0706533   -1.5549242  0.099328823   -3.0706533    1.5157291   439061 
  390000    1.0101409   -3.0715042   -3.0715042   -1.5562964   0.10278973   -3.0715042    1.5152078   439061 
  391000    1.0089257   -3.0717085   -3.0717085   -1.5583234   0.10156865   -3.0717085    1.5133851   439061 
  392000    1.0096269   -3.0745558   -3.0745558   -1.5601189   0.10625969   -3.0745558    1.5144369   439061 
  393000    1.0094757   -3.0762058   -3.0762058   -1.5619957  0.098708721   -3.0762058    1.5142101   439061 
  394000    1.0076699   -3.0771395   -3.0771395   -1.5656381  0.098804789   -3.0771395    1.5115014   439061 
  395000    1.0082879   -3.0785656   -3.0785656   -1.5661371   0.10175032   -3.0785656    1.5124285   439061 
  396000    1.0060317   -3.0783553   -3.0783553   -1.5693112   0.09972681   -3.0783553    1.5090441   439061 
  397000    1.0068222   -3.0803017   -3.0803017   -1.5700718  0.096806224   -3.0803017    1.5102299   439061 
  398000    1.0068294   -3.0816654   -3.0816654   -1.5714247  0.095126969   -3.0816654    1.5102407   439061 
  399000    1.0073506   -3.0833996   -3.0833996   -1.5723772  0.099380423   -3.0833996    1.5110224   439061 
  400000     1.004702   -3.0812426   -3.0812426    -1.574193  0.095225557   -3.0812426    1.5070496   439061 
  401000    1.0054472   -3.0835773   -3.0835773   -1.5754099  0.096079834   -3.0835773    1.5081673   439061 
  402000     1.005108   -3.0855592   -3.0855592   -1.5779006  0.098111227   -3.0855592    1.5076586   439061 
  403000    1.0064768    -3.089155    -3.089155   -1.5794433   0.09677074    -3.089155    1.5097118   439061 
  404000    1.0042959    -3.088548    -3.088548   -1.5821075  0.097939004    -3.088548    1.5064405   439061 
  405000    1.0058903   -3.0927516   -3.0927516   -1.5839195  0.099052135   -3.0927516    1.5088321   439061 
  406000    1.0053752   -3.0925472   -3.0925472   -1.5844878  0.098462068   -3.0925472    1.5080594   439061 
  407000    1.0045213   -3.0938015   -3.0938015    -1.587023  0.097109383   -3.0938015    1.5067786   439061 
  408000    1.0030649   -3.0950084   -3.0950084   -1.5904146  0.095474104   -3.0950084    1.5045939   439061 
  409000    1.0023767   -3.0952241   -3.0952241   -1.5916625  0.099566028   -3.0952241    1.5035616   439061 
  410000    1.0025932   -3.0968257   -3.0968257   -1.5929394   0.09414025   -3.0968257    1.5038863   439061 
  411000    1.0048153   -3.1006915   -3.1006915    -1.593472  0.099511827   -3.1006915    1.5072195   439061 
  412000    1.0021532   -3.0979243   -3.0979243   -1.5946979   0.10029742   -3.0979243    1.5032264   439061 
  413000    1.0030632   -3.1006534   -3.1006534    -1.596062  0.099434448   -3.1006534    1.5045914   439061 
  414000    1.0021693   -3.1020501   -3.1020501   -1.5987995  0.099189918   -3.1020501    1.5032506   439061 
  415000    1.0011196   -3.1011646   -3.1011646   -1.5994887   0.10110097   -3.1011646     1.501676   439061 
  416000    1.0017158   -3.1033273   -3.1033273    -1.600757  0.098627063   -3.1033273    1.5025703   439061 
  417000    1.0029294   -3.1069779   -3.1069779   -1.6025872  0.096927025   -3.1069779    1.5043907   439061 
  418000    1.0006049   -3.1047303   -3.1047303   -1.6038264   0.10101958   -3.1047303    1.5009039   439061 
  419000    1.0002033   -3.1070688   -3.1070688   -1.6067672  0.098277531   -3.1070688    1.5003016   439061 
  420000    1.0016579   -3.1098819   -3.1098819   -1.6073985  0.099706492   -3.1098819    1.5024834   439061 
  421000    1.0005246   -3.1094456   -3.1094456   -1.6086621  0.098079543   -3.1094456    1.5007835   439061 
  422000   0.99943497   -3.1096655   -3.1096655   -1.6105165   0.09688725   -3.1096655     1.499149   439061 
  423000   0.99810722   -3.1098842   -3.1098842   -1.6127267  0.097032106   -3.1098842    1.4971574   439061 
  424000   0.99871876   -3.1125333   -3.1125333   -1.6144586  0.099845213   -3.1125333    1.4980747   439061 
  425000   0.99814972   -3.1137254   -3.1137254   -1.6165042  0.093143799   -3.1137254    1.4972212   439061 
  426000   0.99729662    -3.114192    -3.114192   -1.6182504  0.094898927    -3.114192    1.4959415   439061 
  427000   0.99731724   -3.1167559   -3.1167559   -1.6207834  0.097101044   -3.1167559    1.4959724   439061 
  428000   0.99697757   -3.1185177   -3.1185177   -1.6230547  0.089772825   -3.1185177    1.4954629   439061 
  429000   0.99738796   -3.1204454   -3.1204454   -1.6243668  0.096868741   -3.1204454    1.4960785   439061 
  430000   0.99855271   -3.1243264   -3.1243264   -1.6265008  0.091906585   -3.1243264    1.4978257   439061 
  431000   0.99698031   -3.1243915   -3.1243915   -1.6289244  0.093944593   -3.1243915    1.4954671   439061 
  432000   0.99817697   -3.1276648   -3.1276648   -1.6304028  0.096664093   -3.1276648     1.497262   439061 
  433000   0.99635292   -3.1271294   -3.1271294   -1.6326035  0.097245111   -3.1271294     1.494526   439061 
  434000   0.99675689   -3.1285105   -3.1285105   -1.6333786  0.094153492   -3.1285105    1.4951319   439061 
  435000   0.99459566   -3.1287761   -3.1287761    -1.636886  0.097012664   -3.1287761    1.4918901   439061 
  436000   0.99461376   -3.1314472   -3.1314472   -1.6395299  0.090568013   -3.1314472    1.4919172   439061 
  437000   0.99580638   -3.1341293   -3.1341293   -1.6404231  0.093142023   -3.1341293    1.4937062   439061 
  438000   0.99478786   -3.1333953   -3.1333953   -1.6412169  0.094812586   -3.1333953    1.4921784   439061 
  439000   0.99606922   -3.1371187   -3.1371187   -1.6430183  0.089538581   -3.1371187    1.4941004   439061 
  440000   0.99459904   -3.1353843   -3.1353843   -1.6434892  0.096234203   -3.1353843    1.4918952   439061 
  441000   0.99475565   -3.1367611   -3.1367611   -1.6446311  0.090960134   -3.1367611    1.4921301   439061 
  442000   0.99309297   -3.1363464   -3.1363464   -1.6467103  0.091869186   -3.1363464    1.4896361   439061 
  443000    0.9932338   -3.1362615   -3.1362615   -1.6464142  0.093983999   -3.1362615    1.4898473   439061 
  444000   0.99468629   -3.1397235   -3.1397235   -1.6476974  0.090925637   -3.1397235     1.492026   439061 
  445000    0.9933268   -3.1383303   -3.1383303   -1.6483435  0.094358566   -3.1383303    1.4899868   439061 
  446000   0.99393168    -3.141062    -3.141062   -1.6501679  0.095202761    -3.141062    1.4908941   439061 
  447000   0.99158428   -3.1395258   -3.1395258   -1.6521528  0.094046902   -3.1395258     1.487373   439061 
  448000   0.99270382   -3.1416055   -3.1416055   -1.6525532  0.091565362   -3.1416055    1.4890523   439061 
  449000   0.99192705   -3.1433546   -3.1433546   -1.6554674  0.095215094   -3.1433546    1.4878872   439061 
  450000   0.99181361   -3.1463651   -3.1463651    -1.658648  0.092336848   -3.1463651     1.487717   439061 
  451000   0.99054122    -3.146374    -3.146374   -1.6605655   0.09832439    -3.146374    1.4858085   439061 
  452000   0.99055218   -3.1465492   -3.1465492   -1.6607243  0.093558559   -3.1465492    1.4858249   439061 
  453000   0.98981933   -3.1479661   -3.1479661   -1.6632405  0.091243759   -3.1479661    1.4847256   439061 
  454000   0.99062108   -3.1519241   -3.1519241   -1.6659959  0.093886782   -3.1519241    1.4859282   439061 
  455000   0.99037771   -3.1535497   -3.1535497   -1.6679865  0.094781018   -3.1535497    1.4855632   439061 
  456000   0.98946752   -3.1530504   -3.1530504   -1.6688525  0.092790801   -3.1530504    1.4841979   439061 
  457000   0.98873145   -3.1539603   -3.1539603   -1.6708665  0.093340079   -3.1539603    1.4830938   439061 
  458000   0.99038599   -3.1577161   -3.1577161   -1.6721405  0.088929337   -3.1577161    1.4855756   439061 
  459000   0.98900326   -3.1572068   -3.1572068   -1.6737053  0.096348291   -3.1572068    1.4835015   439061 
  460000   0.99012619   -3.1599435   -3.1599435   -1.6747576  0.092079759   -3.1599435    1.4851859   439061 
  461000   0.98865917   -3.1595208   -3.1595208   -1.6765355  0.090969141   -3.1595208    1.4829854   439061 
  462000   0.98867648   -3.1606871   -3.1606871   -1.6776758  0.088543886   -3.1606871    1.4830113   439061 
  463000   0.98545956    -3.158239    -3.158239   -1.6800531  0.092677494    -3.158239     1.478186   439061 
  464000   0.98802402   -3.1623351   -3.1623351   -1.6803025  0.092396864   -3.1623351    1.4820327   439061 
  465000   0.98800975   -3.1655871   -3.1655871   -1.6835758  0.095354668   -3.1655871    1.4820113   439061 
  466000   0.98602437   -3.1647737   -3.1647737   -1.6857405  0.088990852   -3.1647737    1.4790332   439061 
  467000   0.98725521   -3.1688439   -3.1688439   -1.6879644  0.088488754   -3.1688439    1.4808794   439061 
  468000   0.98555211   -3.1682286   -3.1682286   -1.6899038  0.087494888   -3.1682286    1.4783248   439061 
  469000    0.9863079   -3.1713469   -3.1713469   -1.6918884  0.090063422   -3.1713469    1.4794585   439061 
  470000   0.98542812   -3.1697521   -3.1697521   -1.6916133  0.091704213   -3.1697521    1.4781388   439061 
  471000   0.98622394   -3.1725927   -3.1725927   -1.6932602  0.096592548   -3.1725927    1.4793325   439061 
  472000   0.98857863   -3.1771058   -3.1771058   -1.6942412  0.095019803   -3.1771058    1.4828646   439061 
  473000   0.98662346   -3.1775686   -3.1775686   -1.6976368  0.092788588   -3.1775686    1.4799318   439061 
  474000    0.9865149   -3.1784804   -3.1784804   -1.6987114  0.091543527   -3.1784804     1.479769   439061 
  475000   0.98675284   -3.1808098   -3.1808098   -1.7006839  0.088830203   -3.1808098    1.4801259   439061 
  476000   0.98631923   -3.1832397   -3.1832397   -1.7037642  0.089013139   -3.1832397    1.4794755   439061 
  477000   0.98427632   -3.1809897   -3.1809897   -1.7045786  0.091944618   -3.1809897    1.4764111   439061 
  478000   0.98495166    -3.182596    -3.182596   -1.7051719   0.08635957    -3.182596    1.4774241   439061 
  479000   0.98302868   -3.1822814   -3.1822814   -1.7077417  0.086591028   -3.1822814    1.4745397   439061 
  480000   0.98352278   -3.1843083   -3.1843083   -1.7090275  0.087352614   -3.1843083    1.4752808   439061 
  481000   0.98327999   -3.1857651   -3.1857651   -1.7108485  0.087929641   -3.1857651    1.4749166   439061 
  482000   0.98381194   -3.1873729   -3.1873729   -1.7116584  0.088026749   -3.1873729    1.4757146   439061 
  483000   0.98267433   -3.1878481   -3.1878481   -1.7138399  0.084814436   -3.1878481    1.4740081   439061 
  484000    0.9843573   -3.1920603   -3.1920603   -1.7155277  0.081883409   -3.1920603    1.4765326   439061 
  485000   0.98205367   -3.1909671   -3.1909671   -1.7178899   0.09165226   -3.1909671    1.4730772   439061 
  486000   0.98218652   -3.1916053   -3.1916053   -1.7183289  0.090631948   -3.1916053    1.4732764   439061 
  487000   0.98241371    -3.194512    -3.194512   -1.7208948   0.08764411    -3.194512    1.4736172   439061 
  488000   0.98214724   -3.1962233   -3.1962233   -1.7230058  0.088566751   -3.1962233    1.4732175   439061 
  489000   0.98236646   -3.1977367   -3.1977367   -1.7241904  0.094067427   -3.1977367    1.4735463   439061 
  490000   0.98196647   -3.1971603   -3.1971603   -1.7242139  0.091131547   -3.1971603    1.4729463   439061 
  491000   0.97947798   -3.1955863   -3.1955863   -1.7263727  0.092060077   -3.1955863    1.4692136   439061 
  492000   0.98101905   -3.1973371   -3.1973371   -1.7258119  0.092019464   -3.1973371    1.4715252   439061 
  493000   0.98061149   -3.1982696   -3.1982696   -1.7273558  0.091016298   -3.1982696    1.4709139   439061 
  494000   0.98049836   -3.2019594   -3.2019594   -1.7312152  0.087859843   -3.2019594    1.4707442   439061 
  495000   0.97854058   -3.2017583   -3.2017583   -1.7339508  0.084272033   -3.2017583    1.4678075   439061 
  496000   0.97857099   -3.2032817   -3.2032817   -1.7354286   0.08880326   -3.2032817    1.4678531   439061 
  497000   0.98127546   -3.2080991   -3.2080991   -1.7361893  0.082730881   -3.2080991    1.4719098   439061 
  498000   0.97901623   -3.2059166   -3.2059166   -1.7373956  0.089004505   -3.2059166     1.468521   439061 
  499000   0.98105788   -3.2103108   -3.2103108   -1.7387273  0.090841658   -3.2103108    1.4715835   439061 
  500000   0.98029933   -3.2106689   -3.2106689   -1.7402232  0.091062945   -3.2106689    1.4704456   439061 
  501000   0.97946072   -3.2127563   -3.2127563   -1.7435686  0.089122783   -3.2127563    1.4691877   439061 
  502000   0.97944143   -3.2148213   -3.2148213   -1.7456625  0.088145707   -3.2148213    1.4691588   439061 
  503000    0.9774192   -3.2139443   -3.2139443   -1.7478188  0.086233256   -3.2139443    1.4661255   439061 
  504000   0.97799275   -3.2163168   -3.2163168    -1.749331  0.092058125   -3.2163168    1.4669858   439061 
  505000    0.9766017   -3.2180656   -3.2180656   -1.7531664  0.089887642   -3.2180656    1.4648992   439061 
  506000   0.97583558   -3.2198908   -3.2198908   -1.7561407  0.084985051   -3.2198908      1.46375   439061 
  507000   0.97724137    -3.223033    -3.223033   -1.7571743  0.088338843    -3.223033    1.4658587   439061 
  508000   0.97559805   -3.2228883   -3.2228883   -1.7594946  0.091197969   -3.2228883    1.4633937   439061 
  509000    0.9737222   -3.2229334   -3.2229334   -1.7623534  0.090512025   -3.2229334      1.46058   439061 
  510000   0.97414967   -3.2254143   -3.2254143   -1.7641931  0.086318671   -3.2254143    1.4612212   439061 
  511000   0.97366324    -3.226745    -3.226745   -1.7662535  0.087289505    -3.226745    1.4604915   439061 
  512000   0.97328831   -3.2266277   -3.2266277   -1.7666986  0.087063799   -3.2266277    1.4599291   439061 
  513000   0.97330835   -3.2289862   -3.2289862    -1.769027  0.084212137   -3.2289862    1.4599592   439061 
  514000   0.97343864   -3.2312414   -3.2312414   -1.7710868  0.084639537   -3.2312414    1.4601546   439061 
  515000   0.97207365   -3.2301349   -3.2301349   -1.7720278  0.084092053   -3.2301349    1.4581072   439061 
  516000   0.97355206   -3.2338574   -3.2338574   -1.7735326  0.088777014   -3.2338574    1.4603248   439061 
  517000   0.97185006   -3.2328726   -3.2328726   -1.7751008  0.087588948   -3.2328726    1.4577718   439061 
  518000   0.97232966   -3.2342414   -3.2342414   -1.7757502  0.086988464   -3.2342414    1.4584912   439061 
  519000   0.97269229   -3.2376658   -3.2376658   -1.7786306  0.085472695   -3.2376658    1.4590351   439061 
  520000   0.97198003   -3.2384466   -3.2384466   -1.7804799  0.088763981   -3.2384466    1.4579667   439061 
  521000   0.97253431   -3.2414606   -3.2414606   -1.7826625  0.083831347   -3.2414606    1.4587981   439061 
  522000   0.97108889    -3.242424    -3.242424    -1.785794  0.089273704    -3.242424      1.45663   439061 
  523000    0.9704953   -3.2434898   -3.2434898   -1.7877502  0.080916968   -3.2434898    1.4557396   439061 
  524000   0.97107337   -3.2446644   -3.2446644   -1.7880577  0.084417629   -3.2446644    1.4566067   439061 
  525000   0.97184692   -3.2477919   -3.2477919   -1.7900249  0.080267125   -3.2477919    1.4577671   439061 
  526000   0.97078305    -3.248562    -3.248562   -1.7923907  0.085831243    -3.248562    1.4561713   439061 
  527000   0.97101499   -3.2512273   -3.2512273   -1.7947081  0.083345317   -3.2512273    1.4565192   439061 
  528000   0.97121949   -3.2539008   -3.2539008   -1.7970748  0.089872178   -3.2539008    1.4568259   439061 
  529000   0.96975907    -3.253113    -3.253113   -1.7984777  0.087342786    -3.253113    1.4546353   439061 
  530000   0.97059855   -3.2568573   -3.2568573   -1.8009628  0.084632882   -3.2568573    1.4558945   439061 
  531000   0.97049124   -3.2569497   -3.2569497   -1.8012162  0.092341398   -3.2569497    1.4557335   439061 
  532000   0.97156905    -3.260098    -3.260098   -1.8027477  0.088092215    -3.260098    1.4573503   439061 
  533000   0.97026875   -3.2599543   -3.2599543   -1.8045545  0.086319646   -3.2599543    1.4553998   439061 
  534000   0.96947187   -3.2601769   -3.2601769   -1.8059724  0.086927049   -3.2601769    1.4542045   439061 
  535000   0.96911674   -3.2621067   -3.2621067   -1.8084349  0.084671455   -3.2621067    1.4536718   439061 
  536000   0.96655523   -3.2621531   -3.2621531   -1.8123236   0.08474225   -3.2621531    1.4498295   439061 
  537000   0.96709548   -3.2636792   -3.2636792   -1.8130393  0.083276021   -3.2636792    1.4506399   439061 
  538000   0.96646585   -3.2657158   -3.2657158   -1.8160204  0.083532813   -3.2657158    1.4496955   439061 
  539000   0.96498138   -3.2649103   -3.2649103   -1.8174416  0.076516338   -3.2649103    1.4474688   439061 
  540000   0.96641541   -3.2687485   -3.2687485   -1.8191287  0.082596471   -3.2687485    1.4496198   439061 
  541000   0.96538066   -3.2683442   -3.2683442   -1.8202765  0.083711236   -3.2683442    1.4480677   439061 
  542000   0.96659161   -3.2701458   -3.2701458   -1.8202616  0.088596149   -3.2701458    1.4498841   439061 
  543000    0.9686728   -3.2745485   -3.2745485   -1.8215427  0.086396707   -3.2745485    1.4530059   439061 
  544000   0.96616288   -3.2735844   -3.2735844   -1.8243434  0.089295888   -3.2735844     1.449241   439061 
  545000   0.96566946   -3.2750336   -3.2750336   -1.8265327  0.086445721   -3.2750336    1.4485009   439061 
  546000   0.96499294   -3.2751844   -3.2751844   -1.8276983  0.085427294   -3.2751844    1.4474861   439061 
  547000   0.96613428   -3.2787724   -3.2787724   -1.8295743  0.087386943   -3.2787724    1.4491981   439061 
  548000     0.964603   -3.2784415   -3.2784415   -1.8315403  0.089856227   -3.2784415    1.4469012   439061 
  549000   0.96452696   -3.2794136   -3.2794136   -1.8326264  0.082095655   -3.2794136    1.4467871   439061 
  550000   0.96356861   -3.2797242   -3.2797242   -1.8343745   0.08341537   -3.2797242    1.4453496   439061 
  551000   0.96459705    -3.282842    -3.282842   -1.8359497  0.083073904    -3.282842    1.4468923   439061 
  552000    0.9630421   -3.2826823   -3.2826823   -1.8381225  0.081678674   -3.2826823    1.4445599   439061 
  553000    0.9625924   -3.2824209   -3.2824209   -1.8385356   0.08308855   -3.2824209    1.4438853   439061 
  554000   0.96237052   -3.2844282   -3.2844282   -1.8408757  0.080814247   -3.2844282    1.4435525   439061 
  555000   0.96168797   -3.2849002   -3.2849002   -1.8423716  0.077645497   -3.2849002    1.4425287   439061 
  556000   0.96142624    -3.287066    -3.287066   -1.8449299   0.08492554    -3.287066    1.4421361   439061 
  557000   0.96150864   -3.2886839   -3.2886839   -1.8464242  0.083403683   -3.2886839    1.4422597   439061 
  558000   0.96092557   -3.2890746   -3.2890746   -1.8476895  0.080347215   -3.2890746    1.4413851   439061 
  559000   0.96215046   -3.2925893   -3.2925893   -1.8493669  0.077754185   -3.2925893    1.4432224   439061 
  560000   0.96163392   -3.2937883   -3.2937883   -1.8513407  0.083009135   -3.2937883    1.4424476   439061 
  561000   0.96200739   -3.2970053   -3.2970053   -1.8539975  0.082970462   -3.2970053    1.4430078   439061 
  562000   0.96258258   -3.2999545   -3.2999545   -1.8560839   0.08224436   -3.2999545    1.4438706   439061 
  563000   0.96300583   -3.3004682   -3.3004682   -1.8559627  0.085851292   -3.3004682    1.4445055   439061 
  564000   0.96255636   -3.3026379   -3.3026379   -1.8588067    0.0862952   -3.3026379    1.4438313   439061 
  565000   0.96276132   -3.3039655   -3.3039655   -1.8598268  0.086017468   -3.3039655    1.4441387   439061 
  566000   0.96033187   -3.3024422   -3.3024422   -1.8619477  0.088759748   -3.3024422    1.4404945   439061 
  567000   0.96191763   -3.3065747   -3.3065747   -1.8637015  0.088279523   -3.3065747    1.4428732   439061 
  568000   0.96102043   -3.3086999   -3.3086999   -1.8671726  0.085359943   -3.3086999    1.4415274   439061 
  569000   0.96039655   -3.3099804   -3.3099804   -1.8693889  0.083594432   -3.3099804    1.4405915   439061 
  570000   0.95977514   -3.3110048   -3.3110048   -1.8713454   0.08177382   -3.3110048    1.4396594   439061 
  571000   0.96014309   -3.3119646   -3.3119646   -1.8717532  0.080298083   -3.3119646    1.4402114   439061 
  572000   0.95772512   -3.3106293   -3.3106293   -1.8740449  0.078334904   -3.3106293    1.4365844   439061 
  573000   0.95862023   -3.3125579   -3.3125579   -1.8746309  0.081030942   -3.3125579    1.4379271   439061 
  574000   0.95818708   -3.3129967   -3.3129967   -1.8757194  0.080282111   -3.3129967    1.4372773   439061 
  575000   0.95792266   -3.3119487   -3.3119487    -1.875068  0.082396578   -3.3119487    1.4368807   439061 
  576000    0.9583663   -3.3150776   -3.3150776   -1.8775314  0.080195423   -3.3150776    1.4375462   439061 
  577000   0.95663044   -3.3144088   -3.3144088   -1.8794664  0.083465229   -3.3144088    1.4349424   439061 
  578000   0.95796588   -3.3189681   -3.3189681   -1.8820225   0.08116031   -3.3189681    1.4369455   439061 
  579000   0.95789983    -3.320822    -3.320822   -1.8839756  0.081825953    -3.320822    1.4368465   439061 
  580000   0.95682692   -3.3216123   -3.3216123   -1.8863752  0.078891741   -3.3216123    1.4352371   439061 
  581000   0.95675608    -3.323982    -3.323982   -1.8888512  0.076005184    -3.323982    1.4351308   439061 
  582000   0.95602229   -3.3248908   -3.3248908   -1.8908607  0.085661158   -3.3248908    1.4340302   439061 
  583000   0.95514052   -3.3264365   -3.3264365    -1.893729   0.08179206   -3.3264365    1.4327075   439061 
  584000   0.95585146   -3.3290448   -3.3290448   -1.8952709  0.080358931   -3.3290448    1.4337739   439061 
  585000   0.95402839    -3.328606    -3.328606   -1.8975667  0.086170502    -3.328606    1.4310393   439061 
  586000   0.95448333   -3.3305001   -3.3305001   -1.8987783  0.086197367   -3.3305001    1.4317217   439061 
  587000   0.95379637   -3.3323547   -3.3323547   -1.9016634  0.083846125   -3.3323547    1.4306913   439061 
  588000   0.95463094   -3.3351665   -3.3351665   -1.9032234  0.080792838   -3.3351665    1.4319432   439061 
  589000    0.9547019    -3.338342    -3.338342   -1.9062924  0.079675165    -3.338342    1.4320496   439061 
  590000    0.9534308   -3.3390865   -3.3390865   -1.9089435  0.080031142   -3.3390865    1.4301429   439061 
  591000   0.95306685   -3.3402768   -3.3402768   -1.9106798  0.081919805   -3.3402768     1.429597   439061 
  592000   0.95351543   -3.3429052   -3.3429052   -1.9126353  0.083931739   -3.3429052    1.4302699   439061 
  593000   0.95395238   -3.3445915   -3.3445915   -1.9136661  0.079245701   -3.3445915    1.4309253   439061 
  594000   0.95465284   -3.3465159   -3.3465159   -1.9145399  0.083658792   -3.3465159     1.431976   439061 
  595000   0.95331266   -3.3477058   -3.3477058   -1.9177401  0.082137585   -3.3477058    1.4299657   439061 
  596000   0.95284996   -3.3505125   -3.3505125   -1.9212408  0.078734212   -3.3505125    1.4292717   439061 
  597000   0.95128153   -3.3497526   -3.3497526   -1.9228336  0.084194664   -3.3497526     1.426919   439061 
  598000   0.95185459   -3.3536415   -3.3536415   -1.9258628  0.084679739   -3.3536415    1.4277786   439061 
  599000   0.95129294   -3.3541049   -3.3541049   -1.9271688  0.077900593   -3.3541049    1.4269362   439061 
  600000   0.95145653   -3.3552403   -3.3552403   -1.9280588  0.084743855   -3.3552403    1.4271815   439061 
  601000   0.95024554   -3.3568124   -3.3568124   -1.9314474  0.077957261   -3.3568124    1.4253651   439061 
  602000   0.95102954    -3.359194    -3.359194    -1.932653  0.082125201    -3.359194    1.4265411   439061 
  603000   0.94946289   -3.3583933   -3.3583933   -1.9342022   0.08422491   -3.3583933    1.4241911   439061 
  604000   0.95139397   -3.3626723   -3.3626723   -1.9355846  0.083569057   -3.3626723    1.4270877   439061 
  605000   0.95174552   -3.3644288   -3.3644288   -1.9368138  0.078792558   -3.3644288     1.427615   439061 
  606000   0.94939016    -3.362867    -3.362867    -1.938785  0.085392145    -3.362867     1.424082   439061 
  607000   0.94886931   -3.3634091   -3.3634091   -1.9401084   0.08167365   -3.3634091    1.4233007   439061 
  608000   0.94985193   -3.3664655   -3.3664655   -1.9416908  0.076201121   -3.3664655    1.4247746   439061 
  609000   0.94840904   -3.3675361   -3.3675361   -1.9449258  0.078401797   -3.3675361    1.4226103   439061 
  610000    0.9463436   -3.3674947   -3.3674947   -1.9479825  0.076415138   -3.3674947    1.4195122   439061 
  611000   0.94722631   -3.3702192   -3.3702192    -1.949383  0.077136742   -3.3702192    1.4208362   439061 
  612000   0.94752184   -3.3719083   -3.3719083   -1.9506288  0.077936597   -3.3719083    1.4212795   439061 
  613000   0.94768516   -3.3739724   -3.3739724   -1.9524479  0.078205039   -3.3739724    1.4215245   439061 
  614000   0.94656307   -3.3737348   -3.3737348   -1.9538934  0.080402865   -3.3737348    1.4198414   439061 
  615000   0.94765593     -3.37877     -3.37877   -1.9572894  0.075312704     -3.37877    1.4214807   439061 
  616000   0.94628468   -3.3787412   -3.3787412   -1.9593174  0.079182134   -3.3787412    1.4194238   439061 
  617000   0.94535485   -3.3798597   -3.3798597   -1.9618306  0.080153995   -3.3798597     1.418029   439061 
  618000   0.94613739   -3.3832113   -3.3832113   -1.9640085  0.081115948   -3.3832113    1.4192029   439061 
  619000   0.94564786   -3.3851526   -3.3851526    -1.966684  0.076966233   -3.3851526    1.4184686   439061 
  620000   0.94611556   -3.3872206   -3.3872206   -1.9680505  0.076791833   -3.3872206    1.4191701   439061 
  621000   0.94605546   -3.3880632   -3.3880632   -1.9689832  0.084872893   -3.3880632      1.41908   439061 
  622000   0.94486082    -3.388025    -3.388025    -1.970737  0.083583328    -3.388025     1.417288   439061 
  623000   0.94522934   -3.3919928   -3.3919928    -1.974152  0.077621663   -3.3919928    1.4178408   439061 
  624000   0.94398798   -3.3930223   -3.3930223   -1.9770436  0.075185551   -3.3930223    1.4159787   439061 
  625000   0.94275541   -3.3926758   -3.3926758    -1.978546  0.076425726   -3.3926758    1.4141299   439061 
  626000   0.94287422   -3.3939101   -3.3939101    -1.979602  0.076302133   -3.3939101    1.4143081   439061 
  627000    0.9432417   -3.3958221   -3.3958221   -1.9809627  0.074057601   -3.3958221    1.4148593   439061 
  628000   0.94291555   -3.3964993   -3.3964993   -1.9821292   0.08203531   -3.3964993    1.4143701   439061 
  629000   0.94270745   -3.3977346   -3.3977346   -1.9836766  0.074986424   -3.3977346     1.414058   439061 
  630000   0.94329031    -3.399094    -3.399094   -1.9841617  0.081935224    -3.399094    1.4149322   439061 
  631000   0.94169747   -3.3997777   -3.3997777   -1.9872347  0.078045103   -3.3997777     1.412543   439061 
  632000   0.94162466   -3.4013858   -3.4013858    -1.988952  0.083578558   -3.4013858    1.4124338   439061 
  633000   0.94222344   -3.4047242   -3.4047242   -1.9913923  0.077901226   -3.4047242    1.4133319   439061 
  634000   0.94249214   -3.4076081   -3.4076081   -1.9938731  0.073378894   -3.4076081     1.413735   439061 
  635000   0.94218091   -3.4092453   -3.4092453   -1.9959772  0.076747001   -3.4092453    1.4132681   439061 
  636000    0.9405713   -3.4082975   -3.4082975   -1.9974438  0.082030494   -3.4082975    1.4108537   439061 
  637000   0.94038977   -3.4105984   -3.4105984   -2.0000169  0.077805339   -3.4105984    1.4105814   439061 
  638000   0.93922206   -3.4100249   -3.4100249    -2.001195  0.078352685   -3.4100249    1.4088299   439061 
  639000   0.93926096   -3.4110047   -3.4110047   -2.0021165  0.079887297   -3.4110047    1.4088882   439061 
  640000    0.9400342   -3.4147378   -3.4147378   -2.0046897  0.071199825   -3.4147378    1.4100481   439061 
  641000   0.93844238   -3.4152433   -3.4152433   -2.0075829  0.073761503   -3.4152433    1.4076604   439061 
  642000   0.93863636   -3.4167871   -3.4167871   -2.0088358  0.072525277   -3.4167871    1.4079513   439061 
  643000   0.93904866   -3.4172421   -3.4172421   -2.0086723  0.081215202   -3.4172421    1.4085698   439061 
  644000   0.93704602    -3.417538    -3.417538   -2.0119721  0.076762301    -3.417538    1.4055658   439061 
  645000   0.93876541    -3.422373    -3.422373   -2.0142281  0.072282415    -3.422373    1.4081449   439061 
  646000   0.93782589   -3.4235435   -3.4235435   -2.0168079  0.070217923   -3.4235435    1.4067356   439061 
  647000   0.93899952   -3.4265495   -3.4265495   -2.0180534  0.075524165   -3.4265495    1.4084961   439061 
  648000   0.93804401   -3.4266124   -3.4266124   -2.0195496  0.077657016   -3.4266124    1.4070628   439061 
  649000   0.93785141   -3.4277271   -3.4277271   -2.0209532  0.078057526   -3.4277271    1.4067739   439061 
  650000   0.93747214   -3.4287052   -3.4287052   -2.0225002  0.079050792   -3.4287052     1.406205   439061 
  651000   0.93828687   -3.4317619   -3.4317619   -2.0243348  0.081218422   -3.4317619    1.4074271   439061 
  652000   0.93694819   -3.4331565   -3.4331565   -2.0277374  0.075947678   -3.4331565    1.4054191   439061 
  653000   0.93779314   -3.4360002   -3.4360002   -2.0293137  0.082779004   -3.4360002    1.4066865   439061 
  654000   0.93635144   -3.4354641   -3.4354641   -2.0309402  0.080113639   -3.4354641     1.404524   439061 
  655000   0.93618056   -3.4372598   -3.4372598   -2.0329921  0.076625324   -3.4372598    1.4042676   439061 
  656000   0.93658652   -3.4399543   -3.4399543   -2.0350777  0.083147146   -3.4399543    1.4048766   439061 
  657000   0.93622378   -3.4412808   -3.4412808   -2.0369483  0.076450202   -3.4412808    1.4043325   439061 
  658000   0.93815019   -3.4450158   -3.4450158   -2.0377937  0.075266417   -3.4450158    1.4072221   439061 
  659000   0.93590383   -3.4422827   -3.4422827   -2.0384301  0.077561471   -3.4422827    1.4038525   439061 
  660000     0.936679   -3.4444711   -3.4444711   -2.0394558   0.07609019   -3.4444711    1.4050153   439061 
  661000   0.93578684   -3.4449273   -3.4449273   -2.0412503  0.071713393   -3.4449273    1.4036771   439061 
  662000     0.935217   -3.4452842   -3.4452842   -2.0424619  0.081179589   -3.4452842    1.4028223   439061 
  663000   0.93538607   -3.4486752   -3.4486752   -2.0455992  0.074038714   -3.4486752    1.4030759   439061 
  664000   0.93423312   -3.4490191   -3.4490191   -2.0476726  0.075803833   -3.4490191    1.4013465   439061 
  665000   0.93247577   -3.4500655   -3.4500655    -2.051355  0.076516087   -3.4500655    1.3987105   439061 
  666000   0.93199936   -3.4510872   -3.4510872   -2.0530913  0.075380013   -3.4510872    1.3979959   439061 
  667000   0.93297958   -3.4559704   -3.4559704   -2.0565043  0.073097306   -3.4559704    1.3994662   439061 
  668000   0.93190264   -3.4568708   -3.4568708   -2.0590201  0.072322785   -3.4568708    1.3978508   439061 
  669000   0.93239634   -3.4588021   -3.4588021   -2.0602108  0.073884816   -3.4588021    1.3985913   439061 
  670000   0.93278164   -3.4613636   -3.4613636   -2.0621944  0.079800555   -3.4613636    1.3991693   439061 
  671000   0.93195656   -3.4627179   -3.4627179   -2.0647862  0.077843482   -3.4627179    1.3979317   439061 
  672000   0.93244521   -3.4655926   -3.4655926    -2.066928   0.08239532   -3.4655926    1.3986646   439061 
  673000   0.93373917   -3.4687198   -3.4687198   -2.0681142  0.083674911   -3.4687198    1.4006056   439061 
  674000    0.9329905   -3.4705975   -3.4705975   -2.0711149   0.08314388   -3.4705975    1.3994826   439061 
  675000    0.9311795   -3.4705959   -3.4705959   -2.0738298  0.079788174   -3.4705959    1.3967661   439061 
[...]
22832000  0.085165644   -7.0598969   -7.0598969   -6.8973679   -0.5573361   -7.0598969   0.16252899   345103 
22833000  0.084961403   -7.0599546   -7.0599546   -6.8978153  -0.55764167   -7.0599546   0.16213922   345103 
22834000  0.085060797   -7.0599944   -7.0599944   -6.8976655  -0.55759217   -7.0599944    0.1623289   345103 
22835000   0.08486287    -7.059964    -7.059964   -6.8980129   -0.5565182    -7.059964   0.16195118   345103 
22836000  0.084986957   -7.0603773   -7.0603773   -6.8981893  -0.55819999   -7.0603773   0.16218798   345103 
22837000  0.084949466   -7.0604983   -7.0604983   -6.8983818  -0.55858068   -7.0604983   0.16211644   345103 
22838000  0.084800706   -7.0602835   -7.0602835    -6.898451  -0.55632788   -7.0602835   0.16183255   345103 
22839000  0.084736047   -7.0604544   -7.0604544   -6.8987452  -0.55715787   -7.0604544   0.16170915   345103 
22840000  0.084844469   -7.0604823   -7.0604823   -6.8985662  -0.55815718   -7.0604823   0.16191606   345103 
22841000  0.084741264   -7.0603833   -7.0603833   -6.8986642  -0.55974171   -7.0603833   0.16171911   345103 
22842000  0.084628048   -7.0602756   -7.0602756   -6.8987725  -0.55845359   -7.0602756   0.16150305   345103 
22843000  0.084687217   -7.0605712   -7.0605712   -6.8989553  -0.55655356   -7.0605712   0.16161596   345103 
22844000  0.084543162   -7.0601809   -7.0601809   -6.8988398  -0.55609001   -7.0601809   0.16134105   345103 
22845000  0.084805073   -7.0609384   -7.0609384   -6.8990975   -0.5602437   -7.0609384   0.16184088   345103 
22846000  0.084383256   -7.0604148   -7.0604148    -6.899379  -0.55782774   -7.0604148   0.16103589   345103 
22847000  0.084406555   -7.0608107   -7.0608107   -6.8997303  -0.55726197   -7.0608107   0.16108035   345103 
22848000  0.084504212   -7.0609587   -7.0609587    -6.899692  -0.55741802   -7.0609587   0.16126672   345103 
22849000  0.084365527   -7.0608361   -7.0608361    -6.899834  -0.55888063   -7.0608361   0.16100206   345103 
22850000  0.084540073   -7.0612785   -7.0612785   -6.8999433  -0.56043867   -7.0612785   0.16133516   345103 
22851000  0.084534676   -7.0612787   -7.0612787   -6.8999538  -0.55892227   -7.0612787   0.16132486   345103 
22852000  0.084494642   -7.0612618   -7.0612618   -6.9000133  -0.55760101   -7.0612618   0.16124846   345103 
22853000  0.084508018   -7.0615782   -7.0615782   -6.9003043  -0.55853059   -7.0615782   0.16127398   345103 
22854000  0.084127898   -7.0609041   -7.0609041   -6.9003555  -0.55887712   -7.0609041   0.16054857   345103 
22855000  0.084106762    -7.061084    -7.061084   -6.9005757  -0.55934713    -7.061084   0.16050823   345103 
22856000  0.084119109   -7.0612684   -7.0612684   -6.9007366  -0.55718984   -7.0612684    0.1605318   345103 
22857000  0.084320703   -7.0618339   -7.0618339   -6.9009174   -0.5583889   -7.0618339   0.16091651   345103 
22858000  0.084055243   -7.0614624   -7.0614624   -6.9010525  -0.55969116   -7.0614624   0.16040991   345103 
22859000  0.084024506   -7.0616394   -7.0616394   -6.9012881  -0.55877628   -7.0616394   0.16035125   345103 
22860000  0.084074092   -7.0620181   -7.0620181   -6.9015722  -0.55777612   -7.0620181   0.16044588   345103 
22861000  0.084053741   -7.0615731   -7.0615731    -6.901166  -0.55963027   -7.0615731   0.16040705   345103 
22862000  0.084121198   -7.0619413   -7.0619413   -6.9014055  -0.56079726   -7.0619413   0.16053578   345103 
22863000  0.084063491   -7.0619908   -7.0619908   -6.9015651  -0.56042427   -7.0619908   0.16042565   345103 
22864000  0.083959705   -7.0619492   -7.0619492   -6.9017216  -0.55838089   -7.0619492   0.16022759   345103 
22865000  0.083788788   -7.0619556   -7.0619556   -6.9020541  -0.55877202   -7.0619556   0.15990141   345103 
22866000  0.083714134   -7.0620166   -7.0620166   -6.9022576  -0.55989703   -7.0620166   0.15975895   345103 
22867000  0.083767909   -7.0621485   -7.0621485    -6.902287  -0.55945761   -7.0621485   0.15986157   345103 
22868000  0.083745851    -7.062146    -7.062146   -6.9023266  -0.55868137    -7.062146   0.15981947   345103 
22869000   0.08378789   -7.0624784   -7.0624784   -6.9025787  -0.55978983   -7.0624784    0.1598997   345103 
22870000  0.083562823   -7.0623635   -7.0623635   -6.9028933  -0.56022326   -7.0623635   0.15947019   345103 
22871000  0.083662102   -7.0628261   -7.0628261   -6.9031664  -0.56129454   -7.0628261   0.15965965   345103 
22872000  0.083648343   -7.0631277   -7.0631277   -6.9034943  -0.56119038   -7.0631277   0.15963339   345103 
22873000  0.083527967   -7.0627931   -7.0627931   -6.9033894  -0.55886136   -7.0627931   0.15940367   345103 
22874000  0.083318896   -7.0625028   -7.0625028   -6.9034981  -0.55989698   -7.0625028   0.15900468   345103 
22875000  0.083434468   -7.0629126   -7.0629126   -6.9036873  -0.56108106   -7.0629126   0.15922523   345103 
22876000  0.083473876   -7.0631756   -7.0631756   -6.9038752  -0.56045676   -7.0631756   0.15930044   345103 
22877000  0.083305997   -7.0633518   -7.0633518   -6.9043718  -0.55966127   -7.0633518   0.15898006   345103 
22878000  0.083268107   -7.0632056   -7.0632056   -6.9042979  -0.55937433   -7.0632056   0.15890775   345103 
22879000  0.083296214   -7.0635083   -7.0635083   -6.9045469  -0.56216133   -7.0635083   0.15896139   345103 
22880000  0.083167996    -7.063523    -7.063523   -6.9048063  -0.56172746    -7.063523    0.1587167   345103 
22881000  0.083182342   -7.0634624   -7.0634624   -6.9047183  -0.55871554   -7.0634624   0.15874408   345103 
22882000  0.083056101   -7.0633331   -7.0633331   -6.9048299  -0.56082607   -7.0633331   0.15850316   345103 
22883000  0.083224234   -7.0637126   -7.0637126   -6.9048886  -0.56257671   -7.0637126   0.15882403   345103 
22884000  0.083072714   -7.0637432   -7.0637432   -6.9052084  -0.56057348   -7.0637432   0.15853487   345103 
22885000  0.083165504   -7.0641486   -7.0641486   -6.9054367  -0.56100448   -7.0641486   0.15871195   345103 
22886000  0.082894335   -7.0638182   -7.0638182   -6.9056237  -0.56054889   -7.0638182   0.15819445   345103 
22887000  0.082924816   -7.0638499   -7.0638499   -6.9055972  -0.56230341   -7.0638499   0.15825262   345103 
22888000  0.082793005   -7.0640452   -7.0640452   -6.9060441  -0.56224228   -7.0640452   0.15800108   345103 
22889000  0.082857641   -7.0639656   -7.0639656   -6.9058412  -0.56088171   -7.0639656   0.15812443   345103 
22890000  0.082784864   -7.0640007   -7.0640007   -6.9060151  -0.56009497   -7.0640007   0.15798554   345103 
22891000  0.082648632   -7.0639039   -7.0639039   -6.9061784  -0.56092693   -7.0639039   0.15772556   345103 
22892000  0.082890659   -7.0644127   -7.0644127   -6.9062252   -0.5624511   -7.0644127   0.15818744   345103 
22893000   0.08269679   -7.0641875   -7.0641875   -6.9063701  -0.56144298   -7.0641875   0.15781746   345103 
22894000  0.082660996   -7.0642486   -7.0642486   -6.9064995  -0.55937546   -7.0642486   0.15774915   345103 
22895000  0.082660825   -7.0644064   -7.0644064   -6.9066576  -0.56175157   -7.0644064   0.15774882   345103 
22896000  0.082462116   -7.0640847   -7.0640847   -6.9067151  -0.56281218   -7.0640847   0.15736961   345103 
22897000  0.082509822   -7.0644007   -7.0644007     -6.90694  -0.56145875   -7.0644007   0.15746065   345103 
22898000   0.08281472   -7.0648553   -7.0648553   -6.9068128  -0.56135886   -7.0648553   0.15804252   345103 
22899000  0.082573604   -7.0645993   -7.0645993    -6.907017  -0.56201046   -7.0645993   0.15758237   345103 
22900000  0.082616703   -7.0646028   -7.0646028   -6.9069382  -0.56320538   -7.0646028   0.15766462   345103 
22901000  0.082543665   -7.0645467   -7.0645467   -6.9070215  -0.56290961   -7.0645467   0.15752524   345103 
22902000  0.082572881   -7.0646024   -7.0646024   -6.9070214  -0.56130462   -7.0646024   0.15758099   345103 
22903000  0.082447029   -7.0646685   -7.0646685   -6.9073277  -0.56073844   -7.0646685   0.15734082   345103 
22904000   0.08243354   -7.0648155   -7.0648155   -6.9075004  -0.56323069   -7.0648155   0.15731508   345103 
22905000  0.082351509   -7.0647098   -7.0647098   -6.9075512  -0.56182283   -7.0647098   0.15715853   345103 
22906000  0.082412558   -7.0649855   -7.0649855   -6.9077104  -0.56181696   -7.0649855   0.15727504   345103 
22907000  0.082502779   -7.0652936   -7.0652936   -6.9078464  -0.56227899   -7.0652936   0.15744721   345103 
22908000  0.082217392   -7.0648795   -7.0648795   -6.9079769  -0.56170476   -7.0648795   0.15690258   345103 
22909000  0.082276037   -7.0651344   -7.0651344   -6.9081199   -0.5632428   -7.0651344    0.1570145   345103 
22910000  0.082262107   -7.0652818   -7.0652818   -6.9082939  -0.56204068   -7.0652818   0.15698792   345103 
22911000  0.082356375   -7.0654426   -7.0654426   -6.9082748   -0.5610214   -7.0654426   0.15716782   345103 
22912000  0.082175888   -7.0654075   -7.0654075   -6.9085841  -0.56275153   -7.0654075   0.15682338   345103 
22913000   0.08215031   -7.0654168   -7.0654168   -6.9086422  -0.56403457   -7.0654168   0.15677456   345103 
22914000  0.082006152   -7.0656057   -7.0656057   -6.9091063   -0.5631488   -7.0656057   0.15649945   345103 
22915000  0.081962859   -7.0654784   -7.0654784   -6.9090616  -0.56025813   -7.0654784   0.15641684   345103 
22916000  0.082101352   -7.0658025   -7.0658025   -6.9091213  -0.56313052   -7.0658025   0.15668113   345103 
22917000  0.081871089   -7.0656653   -7.0656653   -6.9094236    -0.564718   -7.0656653    0.1562417   345103 
22918000   0.08181549   -7.0655677   -7.0655677   -6.9094321  -0.56176983   -7.0655677    0.1561356   345103 
22919000  0.081963618   -7.0660522   -7.0660522    -6.909634  -0.56211164   -7.0660522   0.15641828   345103 
22920000  0.081640927   -7.0657352   -7.0657352   -6.9099327  -0.56461055   -7.0657352   0.15580247   345103 
22921000  0.081928289    -7.066403    -7.066403   -6.9100521  -0.56334145    -7.066403   0.15635086   345103 
22922000  0.081993081   -7.0666375   -7.0666375    -6.910163  -0.56299304   -7.0666375   0.15647451   345103 
22923000  0.081649036   -7.0661851   -7.0661851   -6.9103671  -0.56404639   -7.0661851   0.15581794   345103 
22924000  0.081832473   -7.0667244   -7.0667244   -6.9105564  -0.56444234   -7.0667244   0.15616801   345103 
22925000  0.081555265   -7.0663863   -7.0663863   -6.9107473  -0.56291105   -7.0663863   0.15563899   345103 
22926000   0.08175051   -7.0666027   -7.0666027   -6.9105911  -0.56412706   -7.0666027   0.15601159   345103 
22927000  0.081694994   -7.0664833   -7.0664833   -6.9105777  -0.56329839   -7.0664833   0.15590565   345103 
22928000  0.081721197   -7.0662874   -7.0662874   -6.9103317  -0.56287613   -7.0662874   0.15595565   345103 
22929000  0.081570401     -7.06633     -7.06633   -6.9106621   -0.5647297     -7.06633   0.15566787   345103 
22930000  0.081444828   -7.0665283   -7.0665283      -6.9111  -0.56396756   -7.0665283   0.15542823   345103 
22931000  0.081410582   -7.0666206   -7.0666206   -6.9112578  -0.56236354   -7.0666206   0.15536288   345103 
22932000  0.081342053   -7.0667368   -7.0667368   -6.9115047  -0.56287486   -7.0667368    0.1552321   345103 
22933000  0.081381091   -7.0669388   -7.0669388   -6.9116323  -0.56530212   -7.0669388    0.1553066   345103 
22934000  0.081380428   -7.0671779   -7.0671779   -6.9118726  -0.56468171   -7.0671779   0.15530533   345103 
22935000  0.081380767   -7.0672179   -7.0672179   -6.9119119  -0.56274066   -7.0672179   0.15530598   345103 
22936000   0.08118155     -7.06691     -7.06691   -6.9119842    -0.563533     -7.06691    0.1549258   345103 
22937000  0.081269066    -7.067185    -7.067185   -6.9120922  -0.56585609    -7.067185   0.15509281   345103 
22938000  0.081405482   -7.0672349   -7.0672349   -6.9118817   -0.5650318   -7.0672349   0.15535315   345103 
22939000  0.081219068   -7.0670907   -7.0670907   -6.9120933  -0.56368748   -7.0670907   0.15499739   345103 
22940000  0.081125276   -7.0671683   -7.0671683   -6.9123499  -0.56414461   -7.0671683    0.1548184   345103 
22941000  0.081165204   -7.0671431   -7.0671431   -6.9122485   -0.5639676   -7.0671431    0.1548946   345103 
22942000  0.081069393   -7.0672227   -7.0672227    -6.912511  -0.56475615   -7.0672227   0.15471176   345103 
22943000  0.081088761   -7.0674297   -7.0674297    -6.912681  -0.56497373   -7.0674297   0.15474872   345103 
22944000  0.081100031   -7.0675626   -7.0675626   -6.9127924  -0.56395082   -7.0675626   0.15477023   345103 
22945000  0.081076101   -7.0676266   -7.0676266   -6.9129021  -0.56439713   -7.0676266   0.15472456   345103 
22946000  0.081092337   -7.0677102   -7.0677102   -6.9129547  -0.56608352   -7.0677102   0.15475554   345103 
22947000  0.081040979   -7.0676788   -7.0676788   -6.9130212  -0.56607936   -7.0676788   0.15465753   345103 
22948000  0.080839705   -7.0674356   -7.0674356   -6.9131622  -0.56302658   -7.0674356   0.15427342   345103 
22949000  0.080981986   -7.0679434   -7.0679434   -6.9133984  -0.56575246   -7.0679434   0.15454495   345103 
22950000   0.08080107   -7.0676197   -7.0676197     -6.91342   -0.5653543   -7.0676197   0.15419969   345103 
22951000  0.080872906     -7.06787     -7.06787   -6.9135332  -0.56463827     -7.06787   0.15433678   345103 
22952000   0.08079177   -7.0678982   -7.0678982   -6.9137163  -0.56443967   -7.0678982   0.15418195   345103 
22953000  0.080702771   -7.0680401   -7.0680401    -6.914028  -0.56508751   -7.0680401    0.1540121   345103 
22954000  0.080599508   -7.0681397   -7.0681397   -6.9143246  -0.56550103   -7.0681397   0.15381503   345103 
22955000  0.080741802   -7.0682179   -7.0682179   -6.9141313   -0.5659484   -7.0682179   0.15408659   345103 
22956000  0.080724094   -7.0685533   -7.0685533   -6.9145005   -0.5657289   -7.0685533   0.15405279   345103 
22957000  0.080646868   -7.0682739   -7.0682739   -6.9143685  -0.56460474   -7.0682739   0.15390542   345103 
22958000  0.080580588   -7.0685762   -7.0685762   -6.9147973  -0.56583997   -7.0685762   0.15377893   345103 
22959000   0.08041154   -7.0685847   -7.0685847   -6.9151284  -0.56642605   -7.0685847   0.15345632   345103 
22960000  0.080543317   -7.0689434   -7.0689434   -6.9152356  -0.56586319   -7.0689434    0.1537078   345103 
22961000   0.08041306   -7.0688975   -7.0688975   -6.9154382  -0.56603327   -7.0688975   0.15345922   345103 
22962000  0.080406159    -7.068711    -7.068711   -6.9152649     -0.56506    -7.068711   0.15344605   345103 
22963000  0.080395998   -7.0687049   -7.0687049   -6.9152782  -0.56576508   -7.0687049   0.15342666   345103 
22964000  0.080376004   -7.0688543   -7.0688543   -6.9154658  -0.56677512   -7.0688543    0.1533885   345103 
22965000  0.080279869   -7.0689066   -7.0689066   -6.9157016  -0.56569621   -7.0689066   0.15320504   345103 
22966000  0.080259406   -7.0689995   -7.0689995   -6.9158335   -0.5649207   -7.0689995   0.15316599   345103 
22967000  0.080191347   -7.0691918   -7.0691918   -6.9161557  -0.56554927   -7.0691918   0.15303611   345103 
22968000  0.080173249   -7.0694622   -7.0694622   -6.9164606  -0.56778319   -7.0694622   0.15300157   345103 
22969000  0.079962504   -7.0692837   -7.0692837   -6.9166843  -0.56610576   -7.0692837   0.15259938   345103 
22970000  0.080022591   -7.0695959   -7.0695959   -6.9168818  -0.56486221   -7.0695959   0.15271405   345103 
22971000  0.079999063   -7.0693281   -7.0693281   -6.9166589  -0.56536951   -7.0693281   0.15266915   345103 
22972000   0.07999892   -7.0694412   -7.0694412   -6.9167724  -0.56810899   -7.0694412   0.15266888   345103 
22973000   0.07998198   -7.0696499   -7.0696499   -6.9170134  -0.56663853   -7.0696499   0.15263655   345103 
22974000  0.079997722   -7.0694498   -7.0694498   -6.9167832  -0.56489598   -7.0694498   0.15266659   345103 
22975000  0.079922182   -7.0694577   -7.0694577   -6.9169353  -0.56676453   -7.0694577   0.15252243   345103 
22976000  0.080064609   -7.0696661   -7.0696661   -6.9168718  -0.56690829   -7.0696661   0.15279424   345103 
22977000  0.079813906   -7.0695603   -7.0695603   -6.9172445  -0.56701971   -7.0695603    0.1523158   345103 
22978000  0.079918726   -7.0697276   -7.0697276   -6.9172117  -0.56628894   -7.0697276   0.15251584   345103 
22979000  0.079739349     -7.06982     -7.06982   -6.9176465  -0.56546992     -7.06982   0.15217352   345103 
22980000  0.079925691   -7.0697867   -7.0697867   -6.9172576  -0.56651105   -7.0697867   0.15252913   345103 
22981000  0.079801564   -7.0696189   -7.0696189   -6.9173266  -0.56719478   -7.0696189   0.15229225   345103 
22982000  0.079786792   -7.0697106   -7.0697106   -6.9174465  -0.56768346   -7.0697106   0.15226406   345103 
22983000  0.079730548   -7.0699244   -7.0699244   -6.9177677   -0.5673926   -7.0699244   0.15215672   345103 
22984000  0.079722016   -7.0701613   -7.0701613   -6.9180208   -0.5658211   -7.0701613   0.15214044   345103 
22985000  0.079622344   -7.0702324   -7.0702324   -6.9182822  -0.56702058   -7.0702324   0.15195023   345103 
22986000  0.079654695   -7.0704562   -7.0704562   -6.9184442  -0.56889918   -7.0704562   0.15201197   345103 
22987000  0.079570119   -7.0705198   -7.0705198   -6.9186693   -0.5673604   -7.0705198   0.15185056   345103 
22988000  0.079368332   -7.0703995   -7.0703995   -6.9189341  -0.56669653   -7.0703995   0.15146548   345103 
22989000  0.079340957      -7.0705      -7.0705   -6.9190868  -0.56657173      -7.0705   0.15141323   345103 
22990000  0.079427207   -7.0705903   -7.0705903   -6.9190124  -0.56850762   -7.0705903   0.15157783   345103 
22991000  0.079318846   -7.0705339   -7.0705339   -6.9191629   -0.5676831   -7.0705339   0.15137104   345103 
22992000  0.079389734    -7.070796    -7.070796   -6.9192896  -0.56699128    -7.070796   0.15150632   345103 
22993000  0.079260773   -7.0706395   -7.0706395   -6.9193792   -0.5671901   -7.0706395   0.15126021   345103 
22994000  0.079351637     -7.07094     -7.07094   -6.9195064  -0.56890383     -7.07094   0.15143361   345103 
22995000  0.079166221   -7.0706949   -7.0706949   -6.9196152  -0.56850873   -7.0706949   0.15107977   345103 
22996000  0.079410072   -7.0713752   -7.0713752   -6.9198301  -0.56661138   -7.0713752   0.15154513   345103 
22997000  0.079172929   -7.0710592   -7.0710592   -6.9199666  -0.56692565   -7.0710592   0.15109257   345103 
22998000  0.079098195   -7.0711763   -7.0711763   -6.9202264  -0.56966035   -7.0711763   0.15094995   345103 
22999000  0.079207644   -7.0716275   -7.0716275   -6.9204687  -0.56959628   -7.0716275   0.15115882   345103 
23000000   0.07885353   -7.0712005   -7.0712005   -6.9207174   -0.5673481   -7.0712005   0.15048303   345103 
Loop time of 57173.4 on 192 procs for 20000000 steps with 345103 atoms

Performance: 151119.250 tau/day, 349.813 timesteps/s
92.4% CPU use with 192 MPI tasks x 1 OpenMP threads

MPI task timing breakdown:
Section |  min time  |  avg time  |  max time  |%varavg|  %CPU | %total
-----------------------------------------------------------------------
Pair    | 24959      | 33285      | 36226      |1361.4 |  96.3 | 58.22
Bond    | 12.855     | 14.138     | 15.228     |  12.4 | 100.0 |  0.02
Neigh   | 5597.4     | 7329.1     | 8424.9     | 652.4 |  99.3 | 12.82
Comm    | 9765.3     | 13424      | 23515      |2574.8 |  82.7 | 23.48
Output  | 1085.9     | 1089.3     | 1089.4     |   0.7 |  65.1 |  1.91
Modify  | 604.74     | 991.65     | 1924.8     |1496.0 |  88.3 |  1.73
Other   |            | 1040       |            |       |       |  1.82

Nlocal:        1797.41 ave        2122 max        1426 min
Histogram: 2 3 2 36 41 35 50 19 2 2
Nghost:        4993.36 ave        5654 max        3362 min
Histogram: 26 15 7 0 0 0 7 4 38 95
Neighs:        140463.0 ave      160348 max       85212 min
Histogram: 3 3 1 5 2 9 50 43 46 30

Total # of neighbors = 26968872
Ave neighs/atom = 78.147313
Ave special neighs/atom = 0.0000000
Neighbor list builds = 1774695
Dangerous builds = 910626
Total wall time: 18:35:47
