#LAMMPS data file for rigid bodies
1331 atoms
3 atom types

0 20   xlo xhi
0 20   ylo yhi
0 26.5 zlo zhi

Masses

1 1.0
2 1.0
3 1.0

Atoms

1	1	2	0	5	5	8.25
2	1	2	0	5	6	8.25
3	1	2	0	5	7	8.25
4	1	2	0	5	8	8.25
5	1	2	0	5	9	8.25
6	1	2	0	5	10	8.25
7	1	2	0	5	11	8.25
8	1	2	0	5	12	8.25
9	1	2	0	5	13	8.25
10	1	2	0	5	14	8.25
11	1	2	0	5	15	8.25
12	1	2	0	6	5	8.25
13	1	2	0	6	6	8.25
14	1	2	0	6	7	8.25
15	1	2	0	6	8	8.25
16	1	2	0	6	9	8.25
17	1	2	0	6	10	8.25
18	1	2	0	6	11	8.25
19	1	2	0	6	12	8.25
20	1	2	0	6	13	8.25
21	1	2	0	6	14	8.25
22	1	2	0	6	15	8.25
23	1	2	0	7	5	8.25
24	1	2	0	7	6	8.25
25	1	2	0	7	7	8.25
26	1	2	0	7	8	8.25
27	1	2	0	7	9	8.25
28	1	2	0	7	10	8.25
29	1	2	0	7	11	8.25
30	1	2	0	7	12	8.25
31	1	2	0	7	13	8.25
32	1	2	0	7	14	8.25
33	1	2	0	7	15	8.25
34	1	2	0	8	5	8.25
35	1	2	0	8	6	8.25
36	1	2	0	8	7	8.25
37	1	2	0	8	8	8.25
38	1	2	0	8	9	8.25
39	1	2	0	8	10	8.25
40	1	2	0	8	11	8.25
41	1	2	0	8	12	8.25
42	1	2	0	8	13	8.25
43	1	2	0	8	14	8.25
44	1	2	0	8	15	8.25
45	1	2	0	9	5	8.25
46	1	2	0	9	6	8.25
47	1	2	0	9	7	8.25
48	1	2	0	9	8	8.25
49	1	2	0	9	9	8.25
50	1	2	0	9	10	8.25
51	1	2	0	9	11	8.25
52	1	2	0	9	12	8.25
53	1	2	0	9	13	8.25
54	1	2	0	9	14	8.25
55	1	2	0	9	15	8.25
56	1	2	0	10	5	8.25
57	1	2	0	10	6	8.25
58	1	2	0	10	7	8.25
59	1	2	0	10	8	8.25
60	1	2	0	10	9	8.25
61	1	2	0	10	10	8.25
62	1	2	0	10	11	8.25
63	1	2	0	10	12	8.25
64	1	2	0	10	13	8.25
65	1	2	0	10	14	8.25
66	1	2	0	10	15	8.25
67	1	2	0	11	5	8.25
68	1	2	0	11	6	8.25
69	1	2	0	11	7	8.25
70	1	2	0	11	8	8.25
71	1	2	0	11	9	8.25
72	1	2	0	11	10	8.25
73	1	2	0	11	11	8.25
74	1	2	0	11	12	8.25
75	1	2	0	11	13	8.25
76	1	2	0	11	14	8.25
77	1	2	0	11	15	8.25
78	1	2	0	12	5	8.25
79	1	2	0	12	6	8.25
80	1	2	0	12	7	8.25
81	1	2	0	12	8	8.25
82	1	2	0	12	9	8.25
83	1	2	0	12	10	8.25
84	1	2	0	12	11	8.25
85	1	2	0	12	12	8.25
86	1	2	0	12	13	8.25
87	1	2	0	12	14	8.25
88	1	2	0	12	15	8.25
89	1	2	0	13	5	8.25
90	1	2	0	13	6	8.25
91	1	2	0	13	7	8.25
92	1	2	0	13	8	8.25
93	1	2	0	13	9	8.25
94	1	2	0	13	10	8.25
95	1	2	0	13	11	8.25
96	1	2	0	13	12	8.25
97	1	2	0	13	13	8.25
98	1	2	0	13	14	8.25
99	1	2	0	13	15	8.25
100	1	2	0	14	5	8.25
101	1	2	0	14	6	8.25
102	1	2	0	14	7	8.25
103	1	2	0	14	8	8.25
104	1	2	0	14	9	8.25
105	1	2	0	14	10	8.25
106	1	2	0	14	11	8.25
107	1	2	0	14	12	8.25
108	1	2	0	14	13	8.25
109	1	2	0	14	14	8.25
110	1	2	0	14	15	8.25
111	1	2	0	15	5	8.25
112	1	2	0	15	6	8.25
113	1	2	0	15	7	8.25
114	1	2	0	15	8	8.25
115	1	2	0	15	9	8.25
116	1	2	0	15	10	8.25
117	1	2	0	15	11	8.25
118	1	2	0	15	12	8.25
119	1	2	0	15	13	8.25
120	1	2	0	15	14	8.25
121	1	2	0	15	15	8.25
122	1	2	0	5	5	9.25
123	1	2	0	5	6	9.25
124	1	2	0	5	7	9.25
125	1	2	0	5	8	9.25
126	1	2	0	5	9	9.25
127	1	2	0	5	10	9.25
128	1	2	0	5	11	9.25
129	1	2	0	5	12	9.25
130	1	2	0	5	13	9.25
131	1	2	0	5	14	9.25
132	1	2	0	5	15	9.25
133	1	2	0	6	5	9.25
134	1	3	0	6	6	9.25
135	1	3	0	6	7	9.25
136	1	3	0	6	8	9.25
137	1	3	0	6	9	9.25
138	1	3	0	6	10	9.25
139	1	3	0	6	11	9.25
140	1	3	0	6	12	9.25
141	1	3	0	6	13	9.25
142	1	3	0	6	14	9.25
143	1	2	0	6	15	9.25
144	1	2	0	7	5	9.25
145	1	3	0	7	6	9.25
146	1	3	0	7	7	9.25
147	1	3	0	7	8	9.25
148	1	3	0	7	9	9.25
149	1	3	0	7	10	9.25
150	1	3	0	7	11	9.25
151	1	3	0	7	12	9.25
152	1	3	0	7	13	9.25
153	1	3	0	7	14	9.25
154	1	2	0	7	15	9.25
155	1	2	0	8	5	9.25
156	1	3	0	8	6	9.25
157	1	3	0	8	7	9.25
158	1	3	0	8	8	9.25
159	1	3	0	8	9	9.25
160	1	3	0	8	10	9.25
161	1	3	0	8	11	9.25
162	1	3	0	8	12	9.25
163	1	3	0	8	13	9.25
164	1	3	0	8	14	9.25
165	1	2	0	8	15	9.25
166	1	2	0	9	5	9.25
167	1	3	0	9	6	9.25
168	1	3	0	9	7	9.25
169	1	3	0	9	8	9.25
170	1	3	0	9	9	9.25
171	1	3	0	9	10	9.25
172	1	3	0	9	11	9.25
173	1	3	0	9	12	9.25
174	1	3	0	9	13	9.25
175	1	3	0	9	14	9.25
176	1	2	0	9	15	9.25
177	1	2	0	10	5	9.25
178	1	3	0	10	6	9.25
179	1	3	0	10	7	9.25
180	1	3	0	10	8	9.25
181	1	3	0	10	9	9.25
182	1	3	0	10	10	9.25
183	1	3	0	10	11	9.25
184	1	3	0	10	12	9.25
185	1	3	0	10	13	9.25
186	1	3	0	10	14	9.25
187	1	2	0	10	15	9.25
188	1	2	0	11	5	9.25
189	1	3	0	11	6	9.25
190	1	3	0	11	7	9.25
191	1	3	0	11	8	9.25
192	1	3	0	11	9	9.25
193	1	3	0	11	10	9.25
194	1	3	0	11	11	9.25
195	1	3	0	11	12	9.25
196	1	3	0	11	13	9.25
197	1	3	0	11	14	9.25
198	1	2	0	11	15	9.25
199	1	2	0	12	5	9.25
200	1	3	0	12	6	9.25
201	1	3	0	12	7	9.25
202	1	3	0	12	8	9.25
203	1	3	0	12	9	9.25
204	1	3	0	12	10	9.25
205	1	3	0	12	11	9.25
206	1	3	0	12	12	9.25
207	1	3	0	12	13	9.25
208	1	3	0	12	14	9.25
209	1	2	0	12	15	9.25
210	1	2	0	13	5	9.25
211	1	3	0	13	6	9.25
212	1	3	0	13	7	9.25
213	1	3	0	13	8	9.25
214	1	3	0	13	9	9.25
215	1	3	0	13	10	9.25
216	1	3	0	13	11	9.25
217	1	3	0	13	12	9.25
218	1	3	0	13	13	9.25
219	1	3	0	13	14	9.25
220	1	2	0	13	15	9.25
221	1	2	0	14	5	9.25
222	1	3	0	14	6	9.25
223	1	3	0	14	7	9.25
224	1	3	0	14	8	9.25
225	1	3	0	14	9	9.25
226	1	3	0	14	10	9.25
227	1	3	0	14	11	9.25
228	1	3	0	14	12	9.25
229	1	3	0	14	13	9.25
230	1	3	0	14	14	9.25
231	1	2	0	14	15	9.25
232	1	2	0	15	5	9.25
233	1	2	0	15	6	9.25
234	1	2	0	15	7	9.25
235	1	2	0	15	8	9.25
236	1	2	0	15	9	9.25
237	1	2	0	15	10	9.25
238	1	2	0	15	11	9.25
239	1	2	0	15	12	9.25
240	1	2	0	15	13	9.25
241	1	2	0	15	14	9.25
242	1	2	0	15	15	9.25
243	1	2	0	5	5	10.25
244	1	2	0	5	6	10.25
245	1	2	0	5	7	10.25
246	1	2	0	5	8	10.25
247	1	2	0	5	9	10.25
248	1	2	0	5	10	10.25
249	1	2	0	5	11	10.25
250	1	2	0	5	12	10.25
251	1	2	0	5	13	10.25
252	1	2	0	5	14	10.25
253	1	2	0	5	15	10.25
254	1	2	0	6	5	10.25
255	1	3	0	6	6	10.25
256	1	3	0	6	7	10.25
257	1	3	0	6	8	10.25
258	1	3	0	6	9	10.25
259	1	3	0	6	10	10.25
260	1	3	0	6	11	10.25
261	1	3	0	6	12	10.25
262	1	3	0	6	13	10.25
263	1	3	0	6	14	10.25
264	1	2	0	6	15	10.25
265	1	2	0	7	5	10.25
266	1	3	0	7	6	10.25
267	1	3	0	7	7	10.25
268	1	3	0	7	8	10.25
269	1	3	0	7	9	10.25
270	1	3	0	7	10	10.25
271	1	3	0	7	11	10.25
272	1	3	0	7	12	10.25
273	1	3	0	7	13	10.25
274	1	3	0	7	14	10.25
275	1	2	0	7	15	10.25
276	1	2	0	8	5	10.25
277	1	3	0	8	6	10.25
278	1	3	0	8	7	10.25
279	1	3	0	8	8	10.25
280	1	3	0	8	9	10.25
281	1	3	0	8	10	10.25
282	1	3	0	8	11	10.25
283	1	3	0	8	12	10.25
284	1	3	0	8	13	10.25
285	1	3	0	8	14	10.25
286	1	2	0	8	15	10.25
287	1	2	0	9	5	10.25
288	1	3	0	9	6	10.25
289	1	3	0	9	7	10.25
290	1	3	0	9	8	10.25
291	1	3	0	9	9	10.25
292	1	3	0	9	10	10.25
293	1	3	0	9	11	10.25
294	1	3	0	9	12	10.25
295	1	3	0	9	13	10.25
296	1	3	0	9	14	10.25
297	1	2	0	9	15	10.25
298	1	2	0	10	5	10.25
299	1	3	0	10	6	10.25
300	1	3	0	10	7	10.25
301	1	3	0	10	8	10.25
302	1	3	0	10	9	10.25
303	1	3	0	10	10	10.25
304	1	3	0	10	11	10.25
305	1	3	0	10	12	10.25
306	1	3	0	10	13	10.25
307	1	3	0	10	14	10.25
308	1	2	0	10	15	10.25
309	1	2	0	11	5	10.25
310	1	3	0	11	6	10.25
311	1	3	0	11	7	10.25
312	1	3	0	11	8	10.25
313	1	3	0	11	9	10.25
314	1	3	0	11	10	10.25
315	1	3	0	11	11	10.25
316	1	3	0	11	12	10.25
317	1	3	0	11	13	10.25
318	1	3	0	11	14	10.25
319	1	2	0	11	15	10.25
320	1	2	0	12	5	10.25
321	1	3	0	12	6	10.25
322	1	3	0	12	7	10.25
323	1	3	0	12	8	10.25
324	1	3	0	12	9	10.25
325	1	3	0	12	10	10.25
326	1	3	0	12	11	10.25
327	1	3	0	12	12	10.25
328	1	3	0	12	13	10.25
329	1	3	0	12	14	10.25
330	1	2	0	12	15	10.25
331	1	2	0	13	5	10.25
332	1	3	0	13	6	10.25
333	1	3	0	13	7	10.25
334	1	3	0	13	8	10.25
335	1	3	0	13	9	10.25
336	1	3	0	13	10	10.25
337	1	3	0	13	11	10.25
338	1	3	0	13	12	10.25
339	1	3	0	13	13	10.25
340	1	3	0	13	14	10.25
341	1	2	0	13	15	10.25
342	1	2	0	14	5	10.25
343	1	3	0	14	6	10.25
344	1	3	0	14	7	10.25
345	1	3	0	14	8	10.25
346	1	3	0	14	9	10.25
347	1	3	0	14	10	10.25
348	1	3	0	14	11	10.25
349	1	3	0	14	12	10.25
350	1	3	0	14	13	10.25
351	1	3	0	14	14	10.25
352	1	2	0	14	15	10.25
353	1	2	0	15	5	10.25
354	1	2	0	15	6	10.25
355	1	2	0	15	7	10.25
356	1	2	0	15	8	10.25
357	1	2	0	15	9	10.25
358	1	2	0	15	10	10.25
359	1	2	0	15	11	10.25
360	1	2	0	15	12	10.25
361	1	2	0	15	13	10.25
362	1	2	0	15	14	10.25
363	1	2	0	15	15	10.25
364	1	2	0	5	5	11.25
365	1	2	0	5	6	11.25
366	1	2	0	5	7	11.25
367	1	2	0	5	8	11.25
368	1	2	0	5	9	11.25
369	1	2	0	5	10	11.25
370	1	2	0	5	11	11.25
371	1	2	0	5	12	11.25
372	1	2	0	5	13	11.25
373	1	2	0	5	14	11.25
374	1	2	0	5	15	11.25
375	1	2	0	6	5	11.25
376	1	3	0	6	6	11.25
377	1	3	0	6	7	11.25
378	1	3	0	6	8	11.25
379	1	3	0	6	9	11.25
380	1	3	0	6	10	11.25
381	1	3	0	6	11	11.25
382	1	3	0	6	12	11.25
383	1	3	0	6	13	11.25
384	1	3	0	6	14	11.25
385	1	2	0	6	15	11.25
386	1	2	0	7	5	11.25
387	1	3	0	7	6	11.25
388	1	3	0	7	7	11.25
389	1	3	0	7	8	11.25
390	1	3	0	7	9	11.25
391	1	3	0	7	10	11.25
392	1	3	0	7	11	11.25
393	1	3	0	7	12	11.25
394	1	3	0	7	13	11.25
395	1	3	0	7	14	11.25
396	1	2	0	7	15	11.25
397	1	2	0	8	5	11.25
398	1	3	0	8	6	11.25
399	1	3	0	8	7	11.25
400	1	3	0	8	8	11.25
401	1	3	0	8	9	11.25
402	1	3	0	8	10	11.25
403	1	3	0	8	11	11.25
404	1	3	0	8	12	11.25
405	1	3	0	8	13	11.25
406	1	3	0	8	14	11.25
407	1	2	0	8	15	11.25
408	1	2	0	9	5	11.25
409	1	3	0	9	6	11.25
410	1	3	0	9	7	11.25
411	1	3	0	9	8	11.25
412	1	3	0	9	9	11.25
413	1	3	0	9	10	11.25
414	1	3	0	9	11	11.25
415	1	3	0	9	12	11.25
416	1	3	0	9	13	11.25
417	1	3	0	9	14	11.25
418	1	2	0	9	15	11.25
419	1	2	0	10	5	11.25
420	1	3	0	10	6	11.25
421	1	3	0	10	7	11.25
422	1	3	0	10	8	11.25
423	1	3	0	10	9	11.25
424	1	3	0	10	10	11.25
425	1	3	0	10	11	11.25
426	1	3	0	10	12	11.25
427	1	3	0	10	13	11.25
428	1	3	0	10	14	11.25
429	1	2	0	10	15	11.25
430	1	2	0	11	5	11.25
431	1	3	0	11	6	11.25
432	1	3	0	11	7	11.25
433	1	3	0	11	8	11.25
434	1	3	0	11	9	11.25
435	1	3	0	11	10	11.25
436	1	3	0	11	11	11.25
437	1	3	0	11	12	11.25
438	1	3	0	11	13	11.25
439	1	3	0	11	14	11.25
440	1	2	0	11	15	11.25
441	1	2	0	12	5	11.25
442	1	3	0	12	6	11.25
443	1	3	0	12	7	11.25
444	1	3	0	12	8	11.25
445	1	3	0	12	9	11.25
446	1	3	0	12	10	11.25
447	1	3	0	12	11	11.25
448	1	3	0	12	12	11.25
449	1	3	0	12	13	11.25
450	1	3	0	12	14	11.25
451	1	2	0	12	15	11.25
452	1	2	0	13	5	11.25
453	1	3	0	13	6	11.25
454	1	3	0	13	7	11.25
455	1	3	0	13	8	11.25
456	1	3	0	13	9	11.25
457	1	3	0	13	10	11.25
458	1	3	0	13	11	11.25
459	1	3	0	13	12	11.25
460	1	3	0	13	13	11.25
461	1	3	0	13	14	11.25
462	1	2	0	13	15	11.25
463	1	2	0	14	5	11.25
464	1	3	0	14	6	11.25
465	1	3	0	14	7	11.25
466	1	3	0	14	8	11.25
467	1	3	0	14	9	11.25
468	1	3	0	14	10	11.25
469	1	3	0	14	11	11.25
470	1	3	0	14	12	11.25
471	1	3	0	14	13	11.25
472	1	3	0	14	14	11.25
473	1	2	0	14	15	11.25
474	1	2	0	15	5	11.25
475	1	2	0	15	6	11.25
476	1	2	0	15	7	11.25
477	1	2	0	15	8	11.25
478	1	2	0	15	9	11.25
479	1	2	0	15	10	11.25
480	1	2	0	15	11	11.25
481	1	2	0	15	12	11.25
482	1	2	0	15	13	11.25
483	1	2	0	15	14	11.25
484	1	2	0	15	15	11.25
485	1	2	0	5	5	12.25
486	1	2	0	5	6	12.25
487	1	2	0	5	7	12.25
488	1	2	0	5	8	12.25
489	1	2	0	5	9	12.25
490	1	2	0	5	10	12.25
491	1	2	0	5	11	12.25
492	1	2	0	5	12	12.25
493	1	2	0	5	13	12.25
494	1	2	0	5	14	12.25
495	1	2	0	5	15	12.25
496	1	2	0	6	5	12.25
497	1	3	0	6	6	12.25
498	1	3	0	6	7	12.25
499	1	3	0	6	8	12.25
500	1	3	0	6	9	12.25
501	1	3	0	6	10	12.25
502	1	3	0	6	11	12.25
503	1	3	0	6	12	12.25
504	1	3	0	6	13	12.25
505	1	3	0	6	14	12.25
506	1	2	0	6	15	12.25
507	1	2	0	7	5	12.25
508	1	3	0	7	6	12.25
509	1	3	0	7	7	12.25
510	1	3	0	7	8	12.25
511	1	3	0	7	9	12.25
512	1	3	0	7	10	12.25
513	1	3	0	7	11	12.25
514	1	3	0	7	12	12.25
515	1	3	0	7	13	12.25
516	1	3	0	7	14	12.25
517	1	2	0	7	15	12.25
518	1	2	0	8	5	12.25
519	1	3	0	8	6	12.25
520	1	3	0	8	7	12.25
521	1	3	0	8	8	12.25
522	1	3	0	8	9	12.25
523	1	3	0	8	10	12.25
524	1	3	0	8	11	12.25
525	1	3	0	8	12	12.25
526	1	3	0	8	13	12.25
527	1	3	0	8	14	12.25
528	1	2	0	8	15	12.25
529	1	2	0	9	5	12.25
530	1	3	0	9	6	12.25
531	1	3	0	9	7	12.25
532	1	3	0	9	8	12.25
533	1	3	0	9	9	12.25
534	1	3	0	9	10	12.25
535	1	3	0	9	11	12.25
536	1	3	0	9	12	12.25
537	1	3	0	9	13	12.25
538	1	3	0	9	14	12.25
539	1	2	0	9	15	12.25
540	1	2	0	10	5	12.25
541	1	3	0	10	6	12.25
542	1	3	0	10	7	12.25
543	1	3	0	10	8	12.25
544	1	3	0	10	9	12.25
545	1	3	0	10	10	12.25
546	1	3	0	10	11	12.25
547	1	3	0	10	12	12.25
548	1	3	0	10	13	12.25
549	1	3	0	10	14	12.25
550	1	2	0	10	15	12.25
551	1	2	0	11	5	12.25
552	1	3	0	11	6	12.25
553	1	3	0	11	7	12.25
554	1	3	0	11	8	12.25
555	1	3	0	11	9	12.25
556	1	3	0	11	10	12.25
557	1	3	0	11	11	12.25
558	1	3	0	11	12	12.25
559	1	3	0	11	13	12.25
560	1	3	0	11	14	12.25
561	1	2	0	11	15	12.25
562	1	2	0	12	5	12.25
563	1	3	0	12	6	12.25
564	1	3	0	12	7	12.25
565	1	3	0	12	8	12.25
566	1	3	0	12	9	12.25
567	1	3	0	12	10	12.25
568	1	3	0	12	11	12.25
569	1	3	0	12	12	12.25
570	1	3	0	12	13	12.25
571	1	3	0	12	14	12.25
572	1	2	0	12	15	12.25
573	1	2	0	13	5	12.25
574	1	3	0	13	6	12.25
575	1	3	0	13	7	12.25
576	1	3	0	13	8	12.25
577	1	3	0	13	9	12.25
578	1	3	0	13	10	12.25
579	1	3	0	13	11	12.25
580	1	3	0	13	12	12.25
581	1	3	0	13	13	12.25
582	1	3	0	13	14	12.25
583	1	2	0	13	15	12.25
584	1	2	0	14	5	12.25
585	1	3	0	14	6	12.25
586	1	3	0	14	7	12.25
587	1	3	0	14	8	12.25
588	1	3	0	14	9	12.25
589	1	3	0	14	10	12.25
590	1	3	0	14	11	12.25
591	1	3	0	14	12	12.25
592	1	3	0	14	13	12.25
593	1	3	0	14	14	12.25
594	1	2	0	14	15	12.25
595	1	2	0	15	5	12.25
596	1	2	0	15	6	12.25
597	1	2	0	15	7	12.25
598	1	2	0	15	8	12.25
599	1	2	0	15	9	12.25
600	1	2	0	15	10	12.25
601	1	2	0	15	11	12.25
602	1	2	0	15	12	12.25
603	1	2	0	15	13	12.25
604	1	2	0	15	14	12.25
605	1	2	0	15	15	12.25
606	1	2	0	5	5	13.25
607	1	2	0	5	6	13.25
608	1	2	0	5	7	13.25
609	1	2	0	5	8	13.25
610	1	2	0	5	9	13.25
611	1	2	0	5	10	13.25
612	1	2	0	5	11	13.25
613	1	2	0	5	12	13.25
614	1	2	0	5	13	13.25
615	1	2	0	5	14	13.25
616	1	2	0	5	15	13.25
617	1	2	0	6	5	13.25
618	1	3	0	6	6	13.25
619	1	3	0	6	7	13.25
620	1	3	0	6	8	13.25
621	1	3	0	6	9	13.25
622	1	3	0	6	10	13.25
623	1	3	0	6	11	13.25
624	1	3	0	6	12	13.25
625	1	3	0	6	13	13.25
626	1	3	0	6	14	13.25
627	1	2	0	6	15	13.25
628	1	2	0	7	5	13.25
629	1	3	0	7	6	13.25
630	1	3	0	7	7	13.25
631	1	3	0	7	8	13.25
632	1	3	0	7	9	13.25
633	1	3	0	7	10	13.25
634	1	3	0	7	11	13.25
635	1	3	0	7	12	13.25
636	1	3	0	7	13	13.25
637	1	3	0	7	14	13.25
638	1	2	0	7	15	13.25
639	1	2	0	8	5	13.25
640	1	3	0	8	6	13.25
641	1	3	0	8	7	13.25
642	1	3	0	8	8	13.25
643	1	3	0	8	9	13.25
644	1	3	0	8	10	13.25
645	1	3	0	8	11	13.25
646	1	3	0	8	12	13.25
647	1	3	0	8	13	13.25
648	1	3	0	8	14	13.25
649	1	2	0	8	15	13.25
650	1	2	0	9	5	13.25
651	1	3	0	9	6	13.25
652	1	3	0	9	7	13.25
653	1	3	0	9	8	13.25
654	1	3	0	9	9	13.25
655	1	3	0	9	10	13.25
656	1	3	0	9	11	13.25
657	1	3	0	9	12	13.25
658	1	3	0	9	13	13.25
659	1	3	0	9	14	13.25
660	1	2	0	9	15	13.25
661	1	2	0	10	5	13.25
662	1	3	0	10	6	13.25
663	1	3	0	10	7	13.25
664	1	3	0	10	8	13.25
665	1	3	0	10	9	13.25
666	1	3	0	10	10	13.25
667	1	3	0	10	11	13.25
668	1	3	0	10	12	13.25
669	1	3	0	10	13	13.25
670	1	3	0	10	14	13.25
671	1	2	0	10	15	13.25
672	1	2	0	11	5	13.25
673	1	3	0	11	6	13.25
674	1	3	0	11	7	13.25
675	1	3	0	11	8	13.25
676	1	3	0	11	9	13.25
677	1	3	0	11	10	13.25
678	1	3	0	11	11	13.25
679	1	3	0	11	12	13.25
680	1	3	0	11	13	13.25
681	1	3	0	11	14	13.25
682	1	2	0	11	15	13.25
683	1	2	0	12	5	13.25
684	1	3	0	12	6	13.25
685	1	3	0	12	7	13.25
686	1	3	0	12	8	13.25
687	1	3	0	12	9	13.25
688	1	3	0	12	10	13.25
689	1	3	0	12	11	13.25
690	1	3	0	12	12	13.25
691	1	3	0	12	13	13.25
692	1	3	0	12	14	13.25
693	1	2	0	12	15	13.25
694	1	2	0	13	5	13.25
695	1	3	0	13	6	13.25
696	1	3	0	13	7	13.25
697	1	3	0	13	8	13.25
698	1	3	0	13	9	13.25
699	1	3	0	13	10	13.25
700	1	3	0	13	11	13.25
701	1	3	0	13	12	13.25
702	1	3	0	13	13	13.25
703	1	3	0	13	14	13.25
704	1	2	0	13	15	13.25
705	1	2	0	14	5	13.25
706	1	3	0	14	6	13.25
707	1	3	0	14	7	13.25
708	1	3	0	14	8	13.25
709	1	3	0	14	9	13.25
710	1	3	0	14	10	13.25
711	1	3	0	14	11	13.25
712	1	3	0	14	12	13.25
713	1	3	0	14	13	13.25
714	1	3	0	14	14	13.25
715	1	2	0	14	15	13.25
716	1	2	0	15	5	13.25
717	1	2	0	15	6	13.25
718	1	2	0	15	7	13.25
719	1	2	0	15	8	13.25
720	1	2	0	15	9	13.25
721	1	2	0	15	10	13.25
722	1	2	0	15	11	13.25
723	1	2	0	15	12	13.25
724	1	2	0	15	13	13.25
725	1	2	0	15	14	13.25
726	1	2	0	15	15	13.25
727	1	2	0	5	5	14.25
728	1	2	0	5	6	14.25
729	1	2	0	5	7	14.25
730	1	2	0	5	8	14.25
731	1	2	0	5	9	14.25
732	1	2	0	5	10	14.25
733	1	2	0	5	11	14.25
734	1	2	0	5	12	14.25
735	1	2	0	5	13	14.25
736	1	2	0	5	14	14.25
737	1	2	0	5	15	14.25
738	1	2	0	6	5	14.25
739	1	3	0	6	6	14.25
740	1	3	0	6	7	14.25
741	1	3	0	6	8	14.25
742	1	3	0	6	9	14.25
743	1	3	0	6	10	14.25
744	1	3	0	6	11	14.25
745	1	3	0	6	12	14.25
746	1	3	0	6	13	14.25
747	1	3	0	6	14	14.25
748	1	2	0	6	15	14.25
749	1	2	0	7	5	14.25
750	1	3	0	7	6	14.25
751	1	3	0	7	7	14.25
752	1	3	0	7	8	14.25
753	1	3	0	7	9	14.25
754	1	3	0	7	10	14.25
755	1	3	0	7	11	14.25
756	1	3	0	7	12	14.25
757	1	3	0	7	13	14.25
758	1	3	0	7	14	14.25
759	1	2	0	7	15	14.25
760	1	2	0	8	5	14.25
761	1	3	0	8	6	14.25
762	1	3	0	8	7	14.25
763	1	3	0	8	8	14.25
764	1	3	0	8	9	14.25
765	1	3	0	8	10	14.25
766	1	3	0	8	11	14.25
767	1	3	0	8	12	14.25
768	1	3	0	8	13	14.25
769	1	3	0	8	14	14.25
770	1	2	0	8	15	14.25
771	1	2	0	9	5	14.25
772	1	3	0	9	6	14.25
773	1	3	0	9	7	14.25
774	1	3	0	9	8	14.25
775	1	3	0	9	9	14.25
776	1	3	0	9	10	14.25
777	1	3	0	9	11	14.25
778	1	3	0	9	12	14.25
779	1	3	0	9	13	14.25
780	1	3	0	9	14	14.25
781	1	2	0	9	15	14.25
782	1	2	0	10	5	14.25
783	1	3	0	10	6	14.25
784	1	3	0	10	7	14.25
785	1	3	0	10	8	14.25
786	1	3	0	10	9	14.25
787	1	3	0	10	10	14.25
788	1	3	0	10	11	14.25
789	1	3	0	10	12	14.25
790	1	3	0	10	13	14.25
791	1	3	0	10	14	14.25
792	1	2	0	10	15	14.25
793	1	2	0	11	5	14.25
794	1	3	0	11	6	14.25
795	1	3	0	11	7	14.25
796	1	3	0	11	8	14.25
797	1	3	0	11	9	14.25
798	1	3	0	11	10	14.25
799	1	3	0	11	11	14.25
800	1	3	0	11	12	14.25
801	1	3	0	11	13	14.25
802	1	3	0	11	14	14.25
803	1	2	0	11	15	14.25
804	1	2	0	12	5	14.25
805	1	3	0	12	6	14.25
806	1	3	0	12	7	14.25
807	1	3	0	12	8	14.25
808	1	3	0	12	9	14.25
809	1	3	0	12	10	14.25
810	1	3	0	12	11	14.25
811	1	3	0	12	12	14.25
812	1	3	0	12	13	14.25
813	1	3	0	12	14	14.25
814	1	2	0	12	15	14.25
815	1	2	0	13	5	14.25
816	1	3	0	13	6	14.25
817	1	3	0	13	7	14.25
818	1	3	0	13	8	14.25
819	1	3	0	13	9	14.25
820	1	3	0	13	10	14.25
821	1	3	0	13	11	14.25
822	1	3	0	13	12	14.25
823	1	3	0	13	13	14.25
824	1	3	0	13	14	14.25
825	1	2	0	13	15	14.25
826	1	2	0	14	5	14.25
827	1	3	0	14	6	14.25
828	1	3	0	14	7	14.25
829	1	3	0	14	8	14.25
830	1	3	0	14	9	14.25
831	1	3	0	14	10	14.25
832	1	3	0	14	11	14.25
833	1	3	0	14	12	14.25
834	1	3	0	14	13	14.25
835	1	3	0	14	14	14.25
836	1	2	0	14	15	14.25
837	1	2	0	15	5	14.25
838	1	2	0	15	6	14.25
839	1	2	0	15	7	14.25
840	1	2	0	15	8	14.25
841	1	2	0	15	9	14.25
842	1	2	0	15	10	14.25
843	1	2	0	15	11	14.25
844	1	2	0	15	12	14.25
845	1	2	0	15	13	14.25
846	1	2	0	15	14	14.25
847	1	2	0	15	15	14.25
848	1	2	0	5	5	15.25
849	1	2	0	5	6	15.25
850	1	2	0	5	7	15.25
851	1	2	0	5	8	15.25
852	1	2	0	5	9	15.25
853	1	2	0	5	10	15.25
854	1	2	0	5	11	15.25
855	1	2	0	5	12	15.25
856	1	2	0	5	13	15.25
857	1	2	0	5	14	15.25
858	1	2	0	5	15	15.25
859	1	2	0	6	5	15.25
860	1	3	0	6	6	15.25
861	1	3	0	6	7	15.25
862	1	3	0	6	8	15.25
863	1	3	0	6	9	15.25
864	1	3	0	6	10	15.25
865	1	3	0	6	11	15.25
866	1	3	0	6	12	15.25
867	1	3	0	6	13	15.25
868	1	3	0	6	14	15.25
869	1	2	0	6	15	15.25
870	1	2	0	7	5	15.25
871	1	3	0	7	6	15.25
872	1	3	0	7	7	15.25
873	1	3	0	7	8	15.25
874	1	3	0	7	9	15.25
875	1	3	0	7	10	15.25
876	1	3	0	7	11	15.25
877	1	3	0	7	12	15.25
878	1	3	0	7	13	15.25
879	1	3	0	7	14	15.25
880	1	2	0	7	15	15.25
881	1	2	0	8	5	15.25
882	1	3	0	8	6	15.25
883	1	3	0	8	7	15.25
884	1	3	0	8	8	15.25
885	1	3	0	8	9	15.25
886	1	3	0	8	10	15.25
887	1	3	0	8	11	15.25
888	1	3	0	8	12	15.25
889	1	3	0	8	13	15.25
890	1	3	0	8	14	15.25
891	1	2	0	8	15	15.25
892	1	2	0	9	5	15.25
893	1	3	0	9	6	15.25
894	1	3	0	9	7	15.25
895	1	3	0	9	8	15.25
896	1	3	0	9	9	15.25
897	1	3	0	9	10	15.25
898	1	3	0	9	11	15.25
899	1	3	0	9	12	15.25
900	1	3	0	9	13	15.25
901	1	3	0	9	14	15.25
902	1	2	0	9	15	15.25
903	1	2	0	10	5	15.25
904	1	3	0	10	6	15.25
905	1	3	0	10	7	15.25
906	1	3	0	10	8	15.25
907	1	3	0	10	9	15.25
908	1	3	0	10	10	15.25
909	1	3	0	10	11	15.25
910	1	3	0	10	12	15.25
911	1	3	0	10	13	15.25
912	1	3	0	10	14	15.25
913	1	2	0	10	15	15.25
914	1	2	0	11	5	15.25
915	1	3	0	11	6	15.25
916	1	3	0	11	7	15.25
917	1	3	0	11	8	15.25
918	1	3	0	11	9	15.25
919	1	3	0	11	10	15.25
920	1	3	0	11	11	15.25
921	1	3	0	11	12	15.25
922	1	3	0	11	13	15.25
923	1	3	0	11	14	15.25
924	1	2	0	11	15	15.25
925	1	2	0	12	5	15.25
926	1	3	0	12	6	15.25
927	1	3	0	12	7	15.25
928	1	3	0	12	8	15.25
929	1	3	0	12	9	15.25
930	1	3	0	12	10	15.25
931	1	3	0	12	11	15.25
932	1	3	0	12	12	15.25
933	1	3	0	12	13	15.25
934	1	3	0	12	14	15.25
935	1	2	0	12	15	15.25
936	1	2	0	13	5	15.25
937	1	3	0	13	6	15.25
938	1	3	0	13	7	15.25
939	1	3	0	13	8	15.25
940	1	3	0	13	9	15.25
941	1	3	0	13	10	15.25
942	1	3	0	13	11	15.25
943	1	3	0	13	12	15.25
944	1	3	0	13	13	15.25
945	1	3	0	13	14	15.25
946	1	2	0	13	15	15.25
947	1	2	0	14	5	15.25
948	1	3	0	14	6	15.25
949	1	3	0	14	7	15.25
950	1	3	0	14	8	15.25
951	1	3	0	14	9	15.25
952	1	3	0	14	10	15.25
953	1	3	0	14	11	15.25
954	1	3	0	14	12	15.25
955	1	3	0	14	13	15.25
956	1	3	0	14	14	15.25
957	1	2	0	14	15	15.25
958	1	2	0	15	5	15.25
959	1	2	0	15	6	15.25
960	1	2	0	15	7	15.25
961	1	2	0	15	8	15.25
962	1	2	0	15	9	15.25
963	1	2	0	15	10	15.25
964	1	2	0	15	11	15.25
965	1	2	0	15	12	15.25
966	1	2	0	15	13	15.25
967	1	2	0	15	14	15.25
968	1	2	0	15	15	15.25
969	1	2	0	5	5	16.25
970	1	2	0	5	6	16.25
971	1	2	0	5	7	16.25
972	1	2	0	5	8	16.25
973	1	2	0	5	9	16.25
974	1	2	0	5	10	16.25
975	1	2	0	5	11	16.25
976	1	2	0	5	12	16.25
977	1	2	0	5	13	16.25
978	1	2	0	5	14	16.25
979	1	2	0	5	15	16.25
980	1	2	0	6	5	16.25
981	1	3	0	6	6	16.25
982	1	3	0	6	7	16.25
983	1	3	0	6	8	16.25
984	1	3	0	6	9	16.25
985	1	3	0	6	10	16.25
986	1	3	0	6	11	16.25
987	1	3	0	6	12	16.25
988	1	3	0	6	13	16.25
989	1	3	0	6	14	16.25
990	1	2	0	6	15	16.25
991	1	2	0	7	5	16.25
992	1	3	0	7	6	16.25
993	1	3	0	7	7	16.25
994	1	3	0	7	8	16.25
995	1	3	0	7	9	16.25
996	1	3	0	7	10	16.25
997	1	3	0	7	11	16.25
998	1	3	0	7	12	16.25
999	1	3	0	7	13	16.25
1000	1	3	0	7	14	16.25
1001	1	2	0	7	15	16.25
1002	1	2	0	8	5	16.25
1003	1	3	0	8	6	16.25
1004	1	3	0	8	7	16.25
1005	1	3	0	8	8	16.25
1006	1	3	0	8	9	16.25
1007	1	3	0	8	10	16.25
1008	1	3	0	8	11	16.25
1009	1	3	0	8	12	16.25
1010	1	3	0	8	13	16.25
1011	1	3	0	8	14	16.25
1012	1	2	0	8	15	16.25
1013	1	2	0	9	5	16.25
1014	1	3	0	9	6	16.25
1015	1	3	0	9	7	16.25
1016	1	3	0	9	8	16.25
1017	1	3	0	9	9	16.25
1018	1	3	0	9	10	16.25
1019	1	3	0	9	11	16.25
1020	1	3	0	9	12	16.25
1021	1	3	0	9	13	16.25
1022	1	3	0	9	14	16.25
1023	1	2	0	9	15	16.25
1024	1	2	0	10	5	16.25
1025	1	3	0	10	6	16.25
1026	1	3	0	10	7	16.25
1027	1	3	0	10	8	16.25
1028	1	3	0	10	9	16.25
1029	1	3	0	10	10	16.25
1030	1	3	0	10	11	16.25
1031	1	3	0	10	12	16.25
1032	1	3	0	10	13	16.25
1033	1	3	0	10	14	16.25
1034	1	2	0	10	15	16.25
1035	1	2	0	11	5	16.25
1036	1	3	0	11	6	16.25
1037	1	3	0	11	7	16.25
1038	1	3	0	11	8	16.25
1039	1	3	0	11	9	16.25
1040	1	3	0	11	10	16.25
1041	1	3	0	11	11	16.25
1042	1	3	0	11	12	16.25
1043	1	3	0	11	13	16.25
1044	1	3	0	11	14	16.25
1045	1	2	0	11	15	16.25
1046	1	2	0	12	5	16.25
1047	1	3	0	12	6	16.25
1048	1	3	0	12	7	16.25
1049	1	3	0	12	8	16.25
1050	1	3	0	12	9	16.25
1051	1	3	0	12	10	16.25
1052	1	3	0	12	11	16.25
1053	1	3	0	12	12	16.25
1054	1	3	0	12	13	16.25
1055	1	3	0	12	14	16.25
1056	1	2	0	12	15	16.25
1057	1	2	0	13	5	16.25
1058	1	3	0	13	6	16.25
1059	1	3	0	13	7	16.25
1060	1	3	0	13	8	16.25
1061	1	3	0	13	9	16.25
1062	1	3	0	13	10	16.25
1063	1	3	0	13	11	16.25
1064	1	3	0	13	12	16.25
1065	1	3	0	13	13	16.25
1066	1	3	0	13	14	16.25
1067	1	2	0	13	15	16.25
1068	1	2	0	14	5	16.25
1069	1	3	0	14	6	16.25
1070	1	3	0	14	7	16.25
1071	1	3	0	14	8	16.25
1072	1	3	0	14	9	16.25
1073	1	3	0	14	10	16.25
1074	1	3	0	14	11	16.25
1075	1	3	0	14	12	16.25
1076	1	3	0	14	13	16.25
1077	1	3	0	14	14	16.25
1078	1	2	0	14	15	16.25
1079	1	2	0	15	5	16.25
1080	1	2	0	15	6	16.25
1081	1	2	0	15	7	16.25
1082	1	2	0	15	8	16.25
1083	1	2	0	15	9	16.25
1084	1	2	0	15	10	16.25
1085	1	2	0	15	11	16.25
1086	1	2	0	15	12	16.25
1087	1	2	0	15	13	16.25
1088	1	2	0	15	14	16.25
1089	1	2	0	15	15	16.25
1090	1	2	0	5	5	17.25
1091	1	2	0	5	6	17.25
1092	1	2	0	5	7	17.25
1093	1	2	0	5	8	17.25
1094	1	2	0	5	9	17.25
1095	1	2	0	5	10	17.25
1096	1	2	0	5	11	17.25
1097	1	2	0	5	12	17.25
1098	1	2	0	5	13	17.25
1099	1	2	0	5	14	17.25
1100	1	2	0	5	15	17.25
1101	1	2	0	6	5	17.25
1102	1	3	0	6	6	17.25
1103	1	3	0	6	7	17.25
1104	1	3	0	6	8	17.25
1105	1	3	0	6	9	17.25
1106	1	3	0	6	10	17.25
1107	1	3	0	6	11	17.25
1108	1	3	0	6	12	17.25
1109	1	3	0	6	13	17.25
1110	1	3	0	6	14	17.25
1111	1	2	0	6	15	17.25
1112	1	2	0	7	5	17.25
1113	1	3	0	7	6	17.25
1114	1	3	0	7	7	17.25
1115	1	3	0	7	8	17.25
1116	1	3	0	7	9	17.25
1117	1	3	0	7	10	17.25
1118	1	3	0	7	11	17.25
1119	1	3	0	7	12	17.25
1120	1	3	0	7	13	17.25
1121	1	3	0	7	14	17.25
1122	1	2	0	7	15	17.25
1123	1	2	0	8	5	17.25
1124	1	3	0	8	6	17.25
1125	1	3	0	8	7	17.25
1126	1	3	0	8	8	17.25
1127	1	3	0	8	9	17.25
1128	1	3	0	8	10	17.25
1129	1	3	0	8	11	17.25
1130	1	3	0	8	12	17.25
1131	1	3	0	8	13	17.25
1132	1	3	0	8	14	17.25
1133	1	2	0	8	15	17.25
1134	1	2	0	9	5	17.25
1135	1	3	0	9	6	17.25
1136	1	3	0	9	7	17.25
1137	1	3	0	9	8	17.25
1138	1	3	0	9	9	17.25
1139	1	3	0	9	10	17.25
1140	1	3	0	9	11	17.25
1141	1	3	0	9	12	17.25
1142	1	3	0	9	13	17.25
1143	1	3	0	9	14	17.25
1144	1	2	0	9	15	17.25
1145	1	2	0	10	5	17.25
1146	1	3	0	10	6	17.25
1147	1	3	0	10	7	17.25
1148	1	3	0	10	8	17.25
1149	1	3	0	10	9	17.25
1150	1	3	0	10	10	17.25
1151	1	3	0	10	11	17.25
1152	1	3	0	10	12	17.25
1153	1	3	0	10	13	17.25
1154	1	3	0	10	14	17.25
1155	1	2	0	10	15	17.25
1156	1	2	0	11	5	17.25
1157	1	3	0	11	6	17.25
1158	1	3	0	11	7	17.25
1159	1	3	0	11	8	17.25
1160	1	3	0	11	9	17.25
1161	1	3	0	11	10	17.25
1162	1	3	0	11	11	17.25
1163	1	3	0	11	12	17.25
1164	1	3	0	11	13	17.25
1165	1	3	0	11	14	17.25
1166	1	2	0	11	15	17.25
1167	1	2	0	12	5	17.25
1168	1	3	0	12	6	17.25
1169	1	3	0	12	7	17.25
1170	1	3	0	12	8	17.25
1171	1	3	0	12	9	17.25
1172	1	3	0	12	10	17.25
1173	1	3	0	12	11	17.25
1174	1	3	0	12	12	17.25
1175	1	3	0	12	13	17.25
1176	1	3	0	12	14	17.25
1177	1	2	0	12	15	17.25
1178	1	2	0	13	5	17.25
1179	1	3	0	13	6	17.25
1180	1	3	0	13	7	17.25
1181	1	3	0	13	8	17.25
1182	1	3	0	13	9	17.25
1183	1	3	0	13	10	17.25
1184	1	3	0	13	11	17.25
1185	1	3	0	13	12	17.25
1186	1	3	0	13	13	17.25
1187	1	3	0	13	14	17.25
1188	1	2	0	13	15	17.25
1189	1	2	0	14	5	17.25
1190	1	3	0	14	6	17.25
1191	1	3	0	14	7	17.25
1192	1	3	0	14	8	17.25
1193	1	3	0	14	9	17.25
1194	1	3	0	14	10	17.25
1195	1	3	0	14	11	17.25
1196	1	3	0	14	12	17.25
1197	1	3	0	14	13	17.25
1198	1	3	0	14	14	17.25
1199	1	2	0	14	15	17.25
1200	1	2	0	15	5	17.25
1201	1	2	0	15	6	17.25
1202	1	2	0	15	7	17.25
1203	1	2	0	15	8	17.25
1204	1	2	0	15	9	17.25
1205	1	2	0	15	10	17.25
1206	1	2	0	15	11	17.25
1207	1	2	0	15	12	17.25
1208	1	2	0	15	13	17.25
1209	1	2	0	15	14	17.25
1210	1	2	0	15	15	17.25
1211	1	2	0	5	5	18.25
1212	1	2	0	5	6	18.25
1213	1	2	0	5	7	18.25
1214	1	2	0	5	8	18.25
1215	1	2	0	5	9	18.25
1216	1	2	0	5	10	18.25
1217	1	2	0	5	11	18.25
1218	1	2	0	5	12	18.25
1219	1	2	0	5	13	18.25
1220	1	2	0	5	14	18.25
1221	1	2	0	5	15	18.25
1222	1	2	0	6	5	18.25
1223	1	2	0	6	6	18.25
1224	1	2	0	6	7	18.25
1225	1	2	0	6	8	18.25
1226	1	2	0	6	9	18.25
1227	1	2	0	6	10	18.25
1228	1	2	0	6	11	18.25
1229	1	2	0	6	12	18.25
1230	1	2	0	6	13	18.25
1231	1	2	0	6	14	18.25
1232	1	2	0	6	15	18.25
1233	1	2	0	7	5	18.25
1234	1	2	0	7	6	18.25
1235	1	2	0	7	7	18.25
1236	1	2	0	7	8	18.25
1237	1	2	0	7	9	18.25
1238	1	2	0	7	10	18.25
1239	1	2	0	7	11	18.25
1240	1	2	0	7	12	18.25
1241	1	2	0	7	13	18.25
1242	1	2	0	7	14	18.25
1243	1	2	0	7	15	18.25
1244	1	2	0	8	5	18.25
1245	1	2	0	8	6	18.25
1246	1	2	0	8	7	18.25
1247	1	2	0	8	8	18.25
1248	1	2	0	8	9	18.25
1249	1	2	0	8	10	18.25
1250	1	2	0	8	11	18.25
1251	1	2	0	8	12	18.25
1252	1	2	0	8	13	18.25
1253	1	2	0	8	14	18.25
1254	1	2	0	8	15	18.25
1255	1	2	0	9	5	18.25
1256	1	2	0	9	6	18.25
1257	1	2	0	9	7	18.25
1258	1	2	0	9	8	18.25
1259	1	2	0	9	9	18.25
1260	1	2	0	9	10	18.25
1261	1	2	0	9	11	18.25
1262	1	2	0	9	12	18.25
1263	1	2	0	9	13	18.25
1264	1	2	0	9	14	18.25
1265	1	2	0	9	15	18.25
1266	1	2	0	10	5	18.25
1267	1	2	0	10	6	18.25
1268	1	2	0	10	7	18.25
1269	1	2	0	10	8	18.25
1270	1	2	0	10	9	18.25
1271	1	2	0	10	10	18.25
1272	1	2	0	10	11	18.25
1273	1	2	0	10	12	18.25
1274	1	2	0	10	13	18.25
1275	1	2	0	10	14	18.25
1276	1	2	0	10	15	18.25
1277	1	2	0	11	5	18.25
1278	1	2	0	11	6	18.25
1279	1	2	0	11	7	18.25
1280	1	2	0	11	8	18.25
1281	1	2	0	11	9	18.25
1282	1	2	0	11	10	18.25
1283	1	2	0	11	11	18.25
1284	1	2	0	11	12	18.25
1285	1	2	0	11	13	18.25
1286	1	2	0	11	14	18.25
1287	1	2	0	11	15	18.25
1288	1	2	0	12	5	18.25
1289	1	2	0	12	6	18.25
1290	1	2	0	12	7	18.25
1291	1	2	0	12	8	18.25
1292	1	2	0	12	9	18.25
1293	1	2	0	12	10	18.25
1294	1	2	0	12	11	18.25
1295	1	2	0	12	12	18.25
1296	1	2	0	12	13	18.25
1297	1	2	0	12	14	18.25
1298	1	2	0	12	15	18.25
1299	1	2	0	13	5	18.25
1300	1	2	0	13	6	18.25
1301	1	2	0	13	7	18.25
1302	1	2	0	13	8	18.25
1303	1	2	0	13	9	18.25
1304	1	2	0	13	10	18.25
1305	1	2	0	13	11	18.25
1306	1	2	0	13	12	18.25
1307	1	2	0	13	13	18.25
1308	1	2	0	13	14	18.25
1309	1	2	0	13	15	18.25
1310	1	2	0	14	5	18.25
1311	1	2	0	14	6	18.25
1312	1	2	0	14	7	18.25
1313	1	2	0	14	8	18.25
1314	1	2	0	14	9	18.25
1315	1	2	0	14	10	18.25
1316	1	2	0	14	11	18.25
1317	1	2	0	14	12	18.25
1318	1	2	0	14	13	18.25
1319	1	2	0	14	14	18.25
1320	1	2	0	14	15	18.25
1321	1	2	0	15	5	18.25
1322	1	2	0	15	6	18.25
1323	1	2	0	15	7	18.25
1324	1	2	0	15	8	18.25
1325	1	2	0	15	9	18.25
1326	1	2	0	15	10	18.25
1327	1	2	0	15	11	18.25
1328	1	2	0	15	12	18.25
1329	1	2	0	15	13	18.25
1330	1	2	0	15	14	18.25
1331	1	2	0	15	15	18.25
