LAMMPS (29 Oct 2020)
  using 1 OpenMP thread(s) per MPI task
#Read the equilibrated lj fluid and add nanocubes

units           lj
atom_style      full
#atom_modify     map array first cubes
dimension       3
boundary        p p f
pair_style      lj/smooth/linear 2.5

variable        sigma           equal 1.0
variable        epsilon         equal 1.0
read_restart	restart.dat.10000000
Reading restart file ...
  restart file = 29 Oct 2020, LAMMPS = 29 Oct 2020
WARNING: Restart file used different # of processors: 64 vs. 128 (src/read_restart.cpp:697)
  restoring atom style full from restart
  orthogonal box = (0.0000000 0.0000000 0.0000000) to (80.000000 80.000000 160.00000)
  4 by 4 by 8 MPI processor grid
  restoring pair style lj/smooth/linear from restart
  461331 atoms
Finding 1-2 1-3 1-4 neighbors ...
  special bond factors lj:    0.0      0.0      0.0     
  special bond factors coul:  0.0      0.0      0.0     
     0 = max # of 1-2 neighbors
     0 = max # of 1-3 neighbors
     0 = max # of 1-4 neighbors
     1 = max # of special neighbors
  special bonds CPU = 26.164 seconds
  read_restart CPU = 26.635 seconds

group		solvent type 1
351603 atoms in group solvent
group 		hull  type 2
42816 atoms in group hull
group 		dummy type 3
66912 atoms in group dummy

neighbor      0.4 bin
neigh_modify  exclude molecule/intra cubes

pair_modify   shift yes

pair_coeff    1 1 1.0 1.0 #solvent
pair_coeff    2 2 1.0 1.0 1.12 #np
pair_coeff    3 3 0.0 0.0 0.0 #dummy
pair_coeff    2 3 0.0 0.0 0.0 #np dummy
pair_coeff    1 2 ${sol} 1.0  #np solvent
pair_coeff    1 2 0.85 1.0  
pair_coeff    1 3 0.0 0.0 0.0 #dummy solvent


comm_modify   mode multi cutoff/multi 1 2.5 cutoff/multi 2 2.5 cutoff/multi 3 6.95

reset_timestep 	0

balance 	1.05 shift z 10 1.05
Balancing ...
Unused restart file global fix info:
  fix style: STORE, fix ID: msd_COMPUTE_STORE
Unused restart file peratom fix info:
  fix style: STORE, fix ID: bin1_COMPUTE_STORE
  fix style: STORE, fix ID: bin3_COMPUTE_STORE
Neighbor list info ...
  update every 1 steps, delay 10 steps, check yes
  max neighbors/atom: 2000, page size: 100000
  master list distance cutoff = 2.9
  ghost atom cutoff = 6.95
  binsize = 1.45, bins = 56 56 111
  1 neighbor lists, perpetual/occasional/extra = 1 0 0
  (1) pair lj/smooth/linear, perpetual
      attributes: half, newton on
      pair build: half/bin/newton
      stencil: half/bin/3d/newton
      bin: standard
 rebalancing time: 0.014 seconds
  iteration count = 4
  initial/final maximal load/proc = 6452.0000 5219.0000
  initial/final imbalance factor  = 1.7901593 1.4480536
  x cuts: 0.0000000 0.25 0.5 0.75 1.0000000
  y cuts: 0.0000000 0.25 0.5 0.75 1.0000000
  z cuts: 0.0000000 0.0859375 0.1640625 0.234375 0.328125 0.390625 0.4921875 0.5703125 1.0000000

####################### WALLS ###########################

variable       epsilonWall equal 2*${epsilon}
variable       epsilonWall equal 2*1
variable       repulsive   equal   0.7147*${sigma}
variable       repulsive   equal   0.7147*1
variable       full	   equal   3*${sigma}
variable       full	   equal   3*1
region         lowWall block EDGE EDGE EDGE EDGE EDGE 2

fix            topWall all wall/lj93 zhi EDGE 	       ${epsilonWall} ${sigma} ${repulsive} units box
fix            topWall all wall/lj93 zhi EDGE 	       2 ${sigma} ${repulsive} units box
fix            topWall all wall/lj93 zhi EDGE 	       2 1 ${repulsive} units box
fix            topWall all wall/lj93 zhi EDGE 	       2 1 0.7147 units box
fix            lowSol solvent wall/lj93 zlo EDGE                ${epsilonWall} ${sigma} ${full} units box
fix            lowSol solvent wall/lj93 zlo EDGE                2 ${sigma} ${full} units box
fix            lowSol solvent wall/lj93 zlo EDGE                2 1 ${full} units box
fix            lowSol solvent wall/lj93 zlo EDGE                2 1 3 units box
fix 	       lowCub cubes wall/lj93 zlo EDGE                ${epsilonWall} ${sigma} ${repulsive} units box
fix 	       lowCub cubes wall/lj93 zlo EDGE                2 ${sigma} ${repulsive} units box
fix 	       lowCub cubes wall/lj93 zlo EDGE                2 1 ${repulsive} units box
fix 	       lowCub cubes wall/lj93 zlo EDGE                2 1 0.7147 units box


###################### COMPUTES ##########################

compute        bin1 solvent chunk/atom bin/1d z lower 1.0 units box
compute        bin3 solvent chunk/atom bin/3d x lower 5.0 y lower 5.0 z lower 5.0 units box

compute 	pe solvent 	   pe/atom
compute 	pe2 all 	   pe/atom

######################  FIXES ############################


fix             peclet solvent ave/chunk 10 10 10000 bin1 density/number norm                  none ave one file density.profile

fix              temp solvent ave/chunk 10 10 10000 bin1 temp norm                  none ave one file temp.profile

fix 		 dens solvent ave/chunk 10 10 500000 bin3 density/number norm 		 none ave one file dens3.profile

fix		 temp2 solvent ave/chunk 10 10 500000 bin3 temp norm none ave one file temp3.profile

fix 		pe solvent ave/chunk 1 1 500000 bin3 c_pe norm none ave one file pe3.profile



################### INTEGRATION

fix             1 cubes rigid/nve/small molecule
  create bodies CPU = 0.013 seconds
  96 rigid bodies with 109728 atoms
  6.9282032 = max distance from body owner to body atom

fix             2 solvent nve



## Thermostat
region          regthermo block EDGE EDGE EDGE EDGE 0 15
group           thermo dynamic solvent region regthermo every 1000
dynamic group thermo defined
fix             3 thermo langevin ${temp} ${temp} 10 156453
fix             3 thermo langevin 0.8 ${temp} 10 156453
fix             3 thermo langevin 0.8 0.8 10 156453

## Evaporation
region		regevap block EDGE EDGE EDGE EDGE 140 EDGE
fix 		4 solvent evaporate ${evap} 1 regevap 156415
fix 		4 solvent evaporate 85 1 regevap 156415


#### Load balancing

fix             bal all balance 1000 1.05 shift z 10 1.05

############### Diagnostics and computes ###################

compute        	com cubes          rigid/local   1 mol x y z
compute        	quat cubes         rigid/local   1 mol quatw quati quatj quatk

compute 	cc2 cubes 	   chunk/atom 	 molecule
compute 	msd cubes 	   msd/chunk 	 cc2

fix 		msd all ave/time  1 1 10000 c_msd[*] file dump.msd ave one mode vector

dump            1 all custom 500000 dump.lammpstrj id mol type x y z vx vy vz c_pe2
dump		sol  solvent custom 500000 dump.soltrj id x y z vx vy vz c_pe
dump		cubetrj cubes custom 500000 cubes.lammpstrj id mol type x y z vx vy vz
dump            com cubes local 500000 dump.*.xyz c_com[*]
dump	        xyz hull xyz 500000 cubes.xyz
#dump            quat cubes      local 100000 dump.*.quat c_quat[*]
dump		order cubes 	local 100000 dump.*.order c_com[*] c_quat[*]
#dump		mol cubes molfile 10000 mol.xyz xyz


dump            2 all image 100000 image.*.png type type zoom 1.5 size 1280 720
dump_modify     2 pad 8
dump		image cubes image 100000 image_cubes.*.png type type zoom 1.5 size 1280 720
dump_modify	image pad 8
dump            3 all movie 5000 movie.avi type type zoom 1.5 size 1280 720
dump		4 cubes movie 5000 movie_cubes.avi type type size 1280 720


thermo          1000
thermo_style    custom step temp epair evdwl etotal press pe ke atoms

restart         1000000 restart.dat
timestep        0.005
timer           full
New timer settings: style=full  mode=nosync  timeout=off

run 		${steps}
run 		30000000
Per MPI rank memory allocation (min/avg/max) = 18.43 | 24.31 | 26.74 Mbytes
Step Temp E_pair E_vdwl TotEng Press PotEng KinEng Atoms 
       0   0.79937913   -2.6181134   -2.6181134   -1.7037479 -0.00057176779   -2.6181134   0.91436554   461331 
    1000   0.79997136   -2.6181198   -2.6181198    -1.703055   0.02981257   -2.6181198   0.91506479   461320 
    2000   0.80080809   -2.6189705   -2.6189705   -1.7029248  0.040124152   -2.6189705   0.91604573   461308 
    3000    0.8021808   -2.6205879   -2.6205879    -1.702948  0.037836103   -2.6205879   0.91763984   461296 
    4000   0.80114052   -2.6192913   -2.6192913   -1.7028176  0.040513513   -2.6192913   0.91647368   461284 
    5000    0.8029641   -2.6209632   -2.6209632   -1.7023815  0.032077371   -2.6209632   0.91858168   461273 
    6000   0.80151793   -2.6196576   -2.6196576   -1.7027065  0.031904058   -2.6196576   0.91695113   461261 
    7000   0.80334684   -2.6214222   -2.6214222   -1.7023549  0.032211374   -2.6214222   0.91906735   461249 
    8000    0.8026584      -2.6218      -2.6218   -1.7034964  0.031610276      -2.6218   0.91830363   461237 
    9000   0.80128566   -2.6209962   -2.6209962   -1.7042412  0.034012262   -2.6209962   0.91675498   461226 
   10000   0.80237095   -2.6224353   -2.6224353   -1.7044147  0.038764532   -2.6224353   0.91802055   461214 
   11000   0.80022324    -2.620174    -2.620174   -1.7045869  0.029740254    -2.620174    0.9155871   461202 
   12000   0.80093443   -2.6216737   -2.6216737   -1.7052491  0.033394549   -2.6216737   0.91642466   461190 
   13000   0.80174215   -2.6226598   -2.6226598   -1.7052891  0.031998964   -2.6226598   0.91737074   461179 
   14000   0.80036432   -2.6207315   -2.6207315   -1.7049134  0.033274928   -2.6207315   0.91581801   461167 
   15000   0.79923429   -2.6201738   -2.6201738    -1.705625  0.038935109   -2.6201738   0.91454878   461155 
   16000   0.80004729   -2.6215527   -2.6215527   -1.7060498  0.033842723   -2.6215527   0.91550291   461143 
   17000   0.80204726   -2.6227115   -2.6227115   -1.7048962  0.034824971   -2.6227115   0.91781538   461131 
   18000   0.80086358   -2.6217422   -2.6217422   -1.7052595  0.039022194   -2.6217422    0.9164827   461120 
   19000   0.79950363   -2.6199308   -2.6199308   -1.7049806  0.041404884   -2.6199308   0.91495023   461108 
   20000   0.80161814   -2.6231142   -2.6231142   -1.7057203  0.040046757   -2.6231142   0.91739395   461096 
   21000   0.80055007   -2.6224116   -2.6224116   -1.7062161  0.036197268   -2.6224116   0.91619546   461084 
   22000   0.80231299   -2.6244064   -2.6244064   -1.7061714    0.0369199   -2.6244064   0.91823495   461073 
   23000   0.80039255   -2.6225815   -2.6225815   -1.7065207  0.034273895   -2.6225815   0.91606088   461061 
   24000   0.80118172   -2.6232179   -2.6232179   -1.7062299  0.034500277   -2.6232179   0.91698797   461049 
   25000   0.80082474   -2.6225056   -2.6225056   -1.7059023  0.039394492   -2.6225056   0.91660324   461037 
   26000   0.80034498   -2.6221637   -2.6221637   -1.7060877  0.035059793   -2.6221637   0.91607598   461026 
   27000    0.8009424   -2.6227903   -2.6227903   -1.7060066  0.041491116   -2.6227903   0.91678365   461014 
   28000   0.80038698   -2.6223964   -2.6223964   -1.7062246  0.036238787   -2.6223964   0.91617175   461002 
   29000   0.79943494   -2.6206126   -2.6206126   -1.7055068  0.040323517   -2.6206126    0.9151058   460990 
   30000   0.80135826   -2.6227595   -2.6227595   -1.7054302  0.036206885   -2.6227595    0.9173293   460979 
   31000   0.80042904   -2.6215391   -2.6215391   -1.7052496  0.031855672   -2.6215391   0.91628945   460967 
   32000   0.80002534   -2.6211593   -2.6211593   -1.7053082   0.03074382   -2.6211593   0.91585116   460955 
   33000   0.80156639   -2.6214951   -2.6214951   -1.7038559  0.030146925   -2.6214951   0.91763921   460943 
   34000   0.80038696    -2.620953    -2.620953   -1.7046402  0.033000337    -2.620953   0.91631285   460931 
   35000    0.7988947   -2.6184344   -2.6184344   -1.7038081  0.032294621   -2.6184344   0.91462628   460920 
   36000   0.80056617   -2.6197597   -2.6197597    -1.703196  0.032242663   -2.6197597   0.91656375   460908 
   37000   0.80092931   -2.6200458   -2.6200458   -1.7030424  0.034432461   -2.6200458   0.91700338   460896 
   38000   0.80083291   -2.6196843   -2.6196843   -1.7027675  0.043134456   -2.6196843   0.91691688   460884 
   39000   0.80188083   -2.6211429   -2.6211429   -1.7030043  0.026516794   -2.6211429   0.91813862   460873 
   40000   0.80168748   -2.6210279   -2.6210279   -1.7030867  0.036351614   -2.6210279   0.91794114   460861 
   41000   0.79899367   -2.6184379   -2.6184379   -1.7035574  0.042892115   -2.6184379   0.91488052   460849 
   42000   0.80054717   -2.6192884   -2.6192884   -1.7026052   0.02945063   -2.6192884    0.9166832   460837 
   43000   0.79889124   -2.6175806   -2.6175806   -1.7027717  0.042901474   -2.6175806   0.91480888   460826 
   44000   0.79996497   -2.6197637   -2.6197637   -1.7037015  0.033062765   -2.6197637   0.91606226   460814 
   45000    0.7994784   -2.6194819   -2.6194819   -1.7039529  0.033330817   -2.6194819   0.91552892   460802 
   46000   0.80161071   -2.6208765   -2.6208765   -1.7028819  0.032573876   -2.6208765   0.91799466   460790 
   47000   0.80035207   -2.6204875   -2.6204875   -1.7039124  0.034674023   -2.6204875   0.91657516   460779 
   48000   0.80100153   -2.6213789   -2.6213789   -1.7040361  0.030695307   -2.6213789   0.91734281   460767 
   49000    0.7992679    -2.619196    -2.619196   -1.7038148  0.041051093    -2.619196   0.91538122   460755 
   50000    0.8008472   -2.6208103   -2.6208103   -1.7035964  0.027030124   -2.6208103   0.91721385   460743 
   51000   0.79926866   -2.6191192   -2.6191192   -1.7036894  0.036721476   -2.6191192   0.91542978   460731 
   52000   0.80131157   -2.6215364   -2.6215364   -1.7037449  0.038475209   -2.6215364    0.9177915   460720 
   53000   0.80127925   -2.6210892   -2.6210892   -1.7033108  0.037078558   -2.6210892    0.9177784   460708 
   54000   0.80128885   -2.6219331   -2.6219331   -1.7041199  0.034071277   -2.6219331   0.91781329   460696 
   55000   0.80086011   -2.6212774   -2.6212774   -1.7039313   0.03478121   -2.6212774    0.9173461   460684 
   56000   0.79998053    -2.621196    -2.621196   -1.7048355  0.034743753    -2.621196   0.91636046   460673 
   57000   0.79890701   -2.6208334   -2.6208334   -1.7056788  0.027091797   -2.6208334   0.91515461   460661 
   58000   0.79985363   -2.6215773   -2.6215773   -1.7053145  0.032688062   -2.6215773   0.91626285   460649 
   59000   0.79807732   -2.6206137   -2.6206137   -1.7063619  0.028018568   -2.6206137   0.91425183   460637 
   60000    0.8001123   -2.6228213   -2.6228213   -1.7062164  0.031805722   -2.6228213   0.91660492   460626 
   61000   0.79928041   -2.6222607   -2.6222607   -1.7065849  0.032658153   -2.6222607   0.91567577   460614 
   62000   0.79948927   -2.6228532   -2.6228532   -1.7069143  0.033387477   -2.6228532   0.91593891   460602 
   63000   0.80011845   -2.6235037   -2.6235037   -1.7068201  0.030310166   -2.6235037   0.91668361   460590 
   64000   0.79798629   -2.6207852   -2.6207852   -1.7065225  0.032920761   -2.6207852   0.91426266   460579 
   65000   0.80064989   -2.6224513   -2.6224513    -1.705113  0.027835653   -2.6224513   0.91733828   460567 
   66000   0.80082606   -2.6227947   -2.6227947   -1.7052307  0.033883855   -2.6227947   0.91756403   460555 
   67000   0.79945627   -2.6220795   -2.6220795   -1.7060611  0.036995159   -2.6220795   0.91601844   460543 
   68000   0.79897465   -2.6209234   -2.6209234    -1.705433  0.033394323   -2.6209234   0.91549045   460531 
   69000   0.80061496   -2.6233589   -2.6233589    -1.705967  0.035628718   -2.6233589   0.91739189   460520 
   70000   0.80104609    -2.624054    -2.624054   -1.7061442  0.034429199    -2.624054   0.91790981   460508 
   71000    0.8002214   -2.6234974   -2.6234974   -1.7065087  0.027950885   -2.6234974   0.91698871   460496 
   72000   0.80023792   -2.6230728   -2.6230728   -1.7060413  0.021801761   -2.6230728   0.91703154   460484 
   73000   0.80066152   -2.6228765   -2.6228765   -1.7053377  0.035076603   -2.6228765   0.91753887   460473 
   74000   0.80031753   -2.6219505   -2.6219505   -1.7047819  0.031277712   -2.6219505   0.91716857   460461 
   75000   0.79870265   -2.6210817   -2.6210817     -1.70574  0.033138915   -2.6210817   0.91534176   460449 
   76000   0.79789005   -2.6206803   -2.6206803    -1.706246  0.036608784   -2.6206803   0.91443433   460437 
   77000   0.79769944   -2.6193508   -2.6193508   -1.7051131  0.033742045   -2.6193508   0.91423772   460426 
   78000   0.80113721   -2.6240002   -2.6240002   -1.7057986  0.024349437   -2.6240002   0.91820165   460414 
   79000    0.7994439   -2.6214494   -2.6214494   -1.7051647  0.036863537   -2.6214494   0.91628479   460402 
   80000   0.79921372   -2.6209372   -2.6209372   -1.7048924  0.031414155   -2.6209372   0.91604485   460390 
   81000   0.79859569   -2.6208836   -2.6208836   -1.7055253    0.0391307   -2.6208836   0.91535834   460379 
   82000    0.7982398   -2.6212039   -2.6212039   -1.7062296  0.038503982   -2.6212039   0.91497427   460367 
   83000   0.79921156   -2.6212795   -2.6212795   -1.7051675  0.031712211   -2.6212795   0.91611202   460355 
   84000   0.79820946   -2.6203384   -2.6203384   -1.7053512  0.031596184   -2.6203384   0.91498719   460343 
   85000   0.79883052    -2.622006    -2.622006    -1.706283  0.031845158    -2.622006   0.91572298   460331 
   86000   0.79823334   -2.6211156   -2.6211156   -1.7060553  0.028085068   -2.6211156   0.91506029   460320 
   87000    0.7992864    -2.621872    -2.621872   -1.7055807  0.026142338    -2.621872   0.91629136   460308 
   88000    0.7991744   -2.6211851   -2.6211851   -1.7049983  0.039307716   -2.6211851   0.91618684   460296 
   89000   0.79980985   -2.6230057   -2.6230057   -1.7060665   0.03515279   -2.6230057   0.91693923   460284 
   90000   0.79965469   -2.6217892   -2.6217892   -1.7050059  0.032423193   -2.6217892   0.91678326   460273 
   91000   0.79853927   -2.6214974   -2.6214974    -1.705969  0.033503736   -2.6214974   0.91552833   460261 
   92000   0.79823483   -2.6216901   -2.6216901   -1.7064869  0.030415396   -2.6216901   0.91520315   460249 
   93000   0.79855663   -2.6208045   -2.6208045   -1.7052085  0.034325742   -2.6208045   0.91559598   460237 
   94000   0.79826496   -2.6209918   -2.6209918   -1.7057083  0.033954752   -2.6209918   0.91528344   460226 
   95000   0.79838423   -2.6211495   -2.6211495   -1.7057054  0.036442397   -2.6211495   0.91544407   460214 
   96000   0.79994952   -2.6238115   -2.6238115   -1.7065487  0.039683833   -2.6238115   0.91726278   460202 
   97000   0.79940344   -2.6221539   -2.6221539   -1.7054934  0.039690707   -2.6221539   0.91666051   460190 
   98000   0.79844138   -2.6209552   -2.6209552   -1.7053759   0.03470051   -2.6209552   0.91557923   460179 
   99000   0.79936508   -2.6213192   -2.6213192   -1.7046568  0.038314627   -2.6213192   0.91666234   460167 
  100000   0.79986955   -2.6221457   -2.6221457   -1.7048809  0.036798359   -2.6221457   0.91726476   460155 
  101000   0.80004582   -2.6229323   -2.6229323   -1.7054415  0.033744868   -2.6229323   0.91749082   460143 
  102000   0.79908048   -2.6228845   -2.6228845   -1.7064768  0.026260027   -2.6228845   0.91640767   460131 
  103000   0.79774918   -2.6217602   -2.6217602   -1.7068575  0.030887579   -2.6217602   0.91490278   460120 
  104000   0.79804843   -2.6208929   -2.6208929   -1.7056231  0.030450672   -2.6208929   0.91526984   460108 
  105000   0.79825282   -2.6205731   -2.6205731    -1.705045  0.032176128   -2.6205731   0.91552813   460096 
  106000   0.79818001   -2.6210508   -2.6210508   -1.7055823  0.036162775   -2.6210508    0.9154685   460084 
  107000    0.7990723   -2.6214631   -2.6214631   -1.7049493  0.033544369   -2.6214631   0.91651382   460073 
  108000   0.80013076    -2.622655    -2.622655   -1.7049032  0.037264682    -2.622655   0.91775178   460061 
  109000   0.79920403   -2.6223204   -2.6223204   -1.7056077  0.041507442   -2.6223204   0.91671273   460049 
  110000   0.79902829   -2.6216494   -2.6216494   -1.7051143  0.032700646   -2.6216494   0.91653505   460037 
  111000   0.79928155   -2.6224318   -2.6224318   -1.7055843  0.035721397   -2.6224318   0.91684748   460026 
  112000   0.79988286   -2.6233298   -2.6233298   -1.7057686  0.032887791   -2.6233298   0.91756117   460014 
  113000   0.79751935   -2.6204259   -2.6204259   -1.7055521  0.034930373   -2.6204259   0.91487381   460002 
  114000   0.79798318   -2.6207749   -2.6207749   -1.7053451  0.033852579   -2.6207749   0.91542978   459990 
  115000   0.79778359   -2.6206799   -2.6206799   -1.7054572  0.032555865   -2.6206799    0.9152227   459979 
  116000   0.79940811   -2.6226479   -2.6226479   -1.7055377  0.035229636   -2.6226479   0.91711028   459967 
  117000   0.79902583   -2.6211239   -2.6211239   -1.7044283  0.033684691   -2.6211239   0.91669564   459955 
  118000   0.80052407   -2.6233253   -2.6233253   -1.7048869  0.032255059   -2.6233253   0.91843847   459943 
  119000   0.79893079   -2.6220881   -2.6220881   -1.7054537   0.03174238   -2.6220881   0.91663443   459931 
  120000   0.79913366    -2.621719    -2.621719   -1.7048299  0.030212039    -2.621719   0.91688911   459920 
  121000   0.79876423   -2.6220867   -2.6220867   -1.7055976  0.033888495   -2.6220867   0.91648915   459908 
  122000   0.79816256   -2.6220538   -2.6220538   -1.7062311  0.028645205   -2.6220538   0.91582271   459896 
  123000    0.7989126   -2.6218964   -2.6218964   -1.7051891  0.029270553   -2.6218964   0.91670723   459884 
  124000   0.79981647   -2.6234805   -2.6234805   -1.7057142  0.029532929   -2.6234805   0.91776633   459873 
  125000   0.79877157    -2.621819    -2.621819   -1.7052278  0.030523659    -2.621819   0.91659125   459861 
  126000   0.79922634   -2.6233014   -2.6233014   -1.7061644  0.031694244   -2.6233014   0.91713703   459849 
  127000   0.79764079   -2.6223373   -2.6223373   -1.7069959  0.033119363   -2.6223373   0.91534145   459837 
  128000   0.79839187   -2.6228347   -2.6228347   -1.7066094  0.038168494   -2.6228347   0.91622528   459826 
  129000   0.79981657   -2.6238751   -2.6238751   -1.7059909  0.030332556   -2.6238751   0.91788419   459814 
  130000   0.80011467   -2.6242367   -2.6242367   -1.7059864  0.038565276   -2.6242367   0.91825026   459802 
  131000   0.79676258   -2.6231356   -2.6231356   -1.7087085  0.032683221   -2.6231356   0.91442711   459790 
  132000   0.79669963   -2.6228849   -2.6228849   -1.7085081  0.035633136   -2.6228849   0.91437674   459779 
  133000   0.79703341   -2.6234846   -2.6234846   -1.7087009  0.029011427   -2.6234846    0.9147837   459767 
  134000   0.79619558   -2.6229833   -2.6229833   -1.7091374   0.02353808   -2.6229833   0.91384594   459755 
  135000   0.79813533   -2.6257616   -2.6257616   -1.7096654  0.035691922   -2.6257616   0.91609623   459743 
  136000   0.79862471   -2.6259474   -2.6259474   -1.7092655  0.034231351   -2.6259474   0.91668186   459731 
  137000   0.79915758   -2.6260292   -2.6260292   -1.7087137  0.043882077   -2.6260292   0.91731546   459720 
  138000   0.79902484   -2.6260853   -2.6260853   -1.7088983  0.035654217   -2.6260853   0.91718704   459708 
  139000    0.7987962   -2.6267052   -2.6267052   -1.7097567  0.038596206   -2.6267052   0.91694852   459696 
  140000   0.79823608   -2.6255149   -2.6255149   -1.7091854  0.037449896   -2.6255149   0.91632947   459684 
  141000   0.79752128   -2.6248119   -2.6248119   -1.7092811  0.029723416   -2.6248119   0.91553082   459673 
  142000   0.79804401    -2.625598    -2.625598   -1.7094432  0.031006884    -2.625598   0.91615482   459661 
  143000    0.7975207   -2.6260433   -2.6260433   -1.7104654  0.034929669   -2.6260433   0.91557797   459649 
  144000   0.79866138   -2.6260784   -2.6260784    -1.709167   0.03600887   -2.6260784   0.91691144   459637 
  145000   0.79669515   -2.6241315   -2.6241315   -1.7094556  0.028756841   -2.6241315   0.91467597   459626 
  146000   0.79627067   -2.6246256   -2.6246256   -1.7104131  0.027148482   -2.6246256    0.9142125   459614 
  147000   0.79426942   -2.6224138   -2.6224138   -1.7104752  0.025167273   -2.6224138   0.91193865   459602 
  148000   0.79677819   -2.6252074   -2.6252074   -1.7103644  0.024134416   -2.6252074   0.91484296   459590 
  149000   0.79644229   -2.6238955   -2.6238955   -1.7094163  0.031895236   -2.6238955   0.91447918   459579 
  150000   0.79675482   -2.6243209   -2.6243209    -1.709459   0.03328021   -2.6243209   0.91486192   459567 
  151000   0.79597924   -2.6242549   -2.6242549   -1.7102597  0.031308656   -2.6242549   0.91399524   459555 
  152000   0.79559494   -2.6239357   -2.6239357   -1.7103579   0.03795806   -2.6239357   0.91357782   459543 
  153000   0.79754366   -2.6260098   -2.6260098   -1.7101704   0.03255668   -2.6260098   0.91583943   459531 
  154000   0.79682522   -2.6255108   -2.6255108   -1.7104745  0.032851297   -2.6255108   0.91503634   459520 
  155000   0.79788229   -2.6261176   -2.6261176   -1.7098434  0.023998861   -2.6261176   0.91627415   459508 
  156000   0.79794348   -2.6271422   -2.6271422   -1.7107739  0.038938159   -2.6271422   0.91636835   459496 
  157000    0.7966326   -2.6266052   -2.6266052   -1.7117184  0.036600372   -2.6266052   0.91488682   459484 
  158000   0.79543617   -2.6247911   -2.6247911   -1.7112565   0.03528566   -2.6247911   0.91353466   459473 
  159000     0.798028   -2.6274735   -2.6274735   -1.7109383  0.030936378   -2.6274735   0.91653523   459461 
  160000   0.79829547   -2.6283776   -2.6283776   -1.7115113  0.033398738   -2.6283776   0.91686637   459449 
  161000   0.79803553   -2.6285461   -2.6285461   -1.7119543  0.034962915   -2.6285461   0.91659176   459437 
  162000   0.79738111   -2.6275641   -2.6275641    -1.711702  0.029445318   -2.6275641   0.91586204   459426 
  163000   0.79737156   -2.6283722   -2.6283722   -1.7124971  0.030377518   -2.6283722     0.915875   459414 
  164000   0.79690485   -2.6285971   -2.6285971   -1.7132342  0.027629538   -2.6285971   0.91536283   459402 
  165000   0.79479133   -2.6261599   -2.6261599   -1.7132009  0.033640014   -2.6261599   0.91295899   459390 
  166000   0.79611926   -2.6267348   -2.6267348   -1.7122285  0.027516018   -2.6267348   0.91450625   459379 
  167000   0.79649347   -2.6267195   -2.6267195   -1.7117595  0.028532066   -2.6267195   0.91496001   459367 
  168000   0.79548729   -2.6265533   -2.6265533   -1.7127253  0.028038505   -2.6265533   0.91382805   459355 
  169000   0.79559673   -2.6252537   -2.6252537   -1.7112761  0.028133714   -2.6252537   0.91397765   459343 
  170000   0.79577445   -2.6259245   -2.6259245   -1.7117188  0.024806097   -2.6259245   0.91420569   459331 
  171000   0.79595125   -2.6261036   -2.6261036   -1.7116729  0.034239718   -2.6261036    0.9144307   459320 
  172000   0.79799251   -2.6292058   -2.6292058   -1.7124061  0.030817031   -2.6292058   0.91679976   459308 
  173000   0.79591024   -2.6269928   -2.6269928   -1.7125614  0.026087465   -2.6269928   0.91443137   459296 
  174000   0.79583535   -2.6267019   -2.6267019   -1.7123327  0.032086822   -2.6267019   0.91436922   459284 
  175000   0.79529994   -2.6262175   -2.6262175   -1.7124415   0.03088201   -2.6262175   0.91377595   459273 
  176000   0.79517945   -2.6258788   -2.6258788   -1.7122174  0.028678187   -2.6258788   0.91366139   459261 
  177000   0.79424559   -2.6252294   -2.6252294   -1.7126172  0.035012142   -2.6252294   0.91261222   459249 
  178000   0.79583366   -2.6279609   -2.6279609   -1.7135001   0.03495121   -2.6279609   0.91446085   459237 
  179000   0.79661971   -2.6291373   -2.6291373   -1.7137513  0.035805955   -2.6291373     0.915386   459226 
  180000    0.7974502    -2.629738    -2.629738   -1.7133738  0.032187557    -2.629738   0.91636425   459214 
  181000   0.79731183   -2.6283876   -2.6283876   -1.7121584  0.041162487   -2.6283876   0.91622919   459202 
  182000   0.79657954   -2.6278143   -2.6278143   -1.7124027  0.039761368   -2.6278143    0.9154116   459190 
  183000   0.79743224   -2.6283784   -2.6283784    -1.711965  0.040474753   -2.6283784   0.91641346   459179 
  184000   0.79660995    -2.627065    -2.627065   -1.7115726  0.037688568    -2.627065    0.9154924   459167 
  185000   0.79647052   -2.6275274   -2.6275274   -1.7121713  0.042439637   -2.6275274   0.91535609   459155 
  186000   0.79679018   -2.6281999   -2.6281999   -1.7124525  0.026612718   -2.6281999   0.91574739   459143 
  187000   0.79736654   -2.6272115   -2.6272115   -1.7107778   0.03439245   -2.6272115   0.91643376   459131 
  188000    0.7960911   -2.6276743   -2.6276743   -1.7126845  0.037785495   -2.6276743   0.91498978   459120 
  189000    0.7950301   -2.6266611   -2.6266611   -1.7128669  0.032505553   -2.6266611    0.9137942   459108 
  190000    0.7947986   -2.6264401   -2.6264401   -1.7128881  0.031259304   -2.6264401     0.913552   459096 
  191000   0.79339226    -2.625391    -2.625391   -1.7134317  0.031186247    -2.625391   0.91195937   459084 
  192000    0.7948369   -2.6267718   -2.6267718   -1.7131301  0.020656949   -2.6267718   0.91364179   459073 
  193000   0.79575744   -2.6273138   -2.6273138     -1.71259  0.022272303   -2.6273138   0.91472384   459061 
  194000   0.79422626   -2.6257914   -2.6257914   -1.7128037  0.027877404   -2.6257914   0.91298761   459049 
  195000   0.79509426   -2.6266692   -2.6266692   -1.7126599  0.032885755   -2.6266692    0.9140093   459037 
  196000   0.79684153   -2.6291897   -2.6291897   -1.7131499  0.030315673   -2.6291897   0.91603984   459026 
  197000   0.79529959   -2.6279288   -2.6279288   -1.7136376  0.022863348   -2.6279288   0.91429114   459014 
  198000   0.79426371   -2.6268779   -2.6268779   -1.7137537  0.027531012   -2.6268779   0.91312415   459002 
  199000   0.79635454   -2.6275769   -2.6275769   -1.7120251  0.029628642   -2.6275769    0.9155518   458990 
  200000   0.79514235   -2.6268119   -2.6268119   -1.7126319  0.029719675   -2.6268119   0.91418009   458979 
  201000   0.79444603   -2.6263353   -2.6263353   -1.7129319  0.033875779   -2.6263353   0.91340341   458967 
  202000   0.79527825   -2.6279686   -2.6279686   -1.7135844  0.028148349   -2.6279686   0.91438414   458955 
  203000   0.79565726   -2.6282752   -2.6282752   -1.7134314  0.035194638   -2.6282752   0.91484383   458943 
  204000   0.79642018   -2.6289993   -2.6289993   -1.7132543  0.035966037   -2.6289993   0.91574499   458931 
  205000    0.7966407   -2.6282574   -2.6282574   -1.7122369  0.036103052   -2.6282574    0.9160205   458920 
  206000   0.79550161   -2.6276393   -2.6276393   -1.7129047  0.035512602   -2.6276393   0.91473463   458908 
  207000   0.79491915   -2.6280626   -2.6280626   -1.7139738  0.027538199   -2.6280626   0.91408877   458896 
  208000   0.79584852   -2.6290782   -2.6290782   -1.7138968  0.026670261   -2.6290782    0.9151814   458884 
  209000   0.79622546   -2.6290417   -2.6290417   -1.7134049  0.025854564   -2.6290417   0.91563681   458873 
  210000    0.7965792   -2.6301766   -2.6301766    -1.714109  0.031025943   -2.6301766   0.91606755   458861 
  211000   0.79551416   -2.6295553   -2.6295553   -1.7146886  0.034415693   -2.6295553   0.91486668   458849 
  212000   0.79575979   -2.6301142   -2.6301142   -1.7149411   0.03345117   -2.6301142    0.9151731   458837 
  213000   0.79579098   -2.6302857   -2.6302857   -1.7150548  0.026483259   -2.6302857   0.91523091   458826 
  214000   0.79434379   -2.6283596   -2.6283596   -1.7147691  0.029432805   -2.6283596    0.9135904   458814 
  215000   0.79508762    -2.629537    -2.629537   -1.7150672   0.02892675    -2.629537   0.91446981   458802 
  216000   0.79397327   -2.6287297   -2.6287297   -1.7155177  0.029408528   -2.6287297   0.91321203   458790 
  217000   0.79342945   -2.6279116   -2.6279116   -1.7153031  0.022724206   -2.6279116   0.91260842   458779 
  218000    0.7940974   -2.6292668   -2.6292668   -1.7158662  0.027485532   -2.6292668    0.9134006   458767 
  219000   0.79319563   -2.6281878   -2.6281878   -1.7158006  0.028357507   -2.6281878   0.91238721   458755 
  220000   0.79501166   -2.6312088   -2.6312088   -1.7167088  0.034822438   -2.6312088   0.91450005   458743 
  221000   0.79565151   -2.6319379   -2.6319379   -1.7166779  0.034565193   -2.6319379   0.91526001   458731 
  222000   0.79469433    -2.630911    -2.630911   -1.7167301  0.035692616    -2.630911   0.91418086   458720 
  223000    0.7963184    -2.632549    -2.632549   -1.7164759  0.038892514    -2.632549   0.91607308   458708 
  224000   0.79559762   -2.6309117   -2.6309117   -1.7156438  0.040096089   -2.6309117   0.91526785   458696 
  225000   0.79490944   -2.6310411   -2.6310411   -1.7165411  0.036487713   -2.6310411   0.91450009   458684 
  226000   0.79523014   -2.6315642   -2.6315642   -1.7166732  0.034216155   -2.6315642   0.91489098   458673 
  227000    0.7961273   -2.6330835   -2.6330835   -1.7171364  0.032061322   -2.6330835   0.91594709   458661 
  228000   0.79516237    -2.632655    -2.632655   -1.7177941  0.033311768    -2.632655   0.91486087   458649 
  229000   0.79494144    -2.633099    -2.633099   -1.7184684  0.029903122    -2.633099   0.91463062   458637 
  230000   0.79337274   -2.6309156   -2.6309156    -1.718068  0.032446651   -2.6309156   0.91284763   458626 
  231000   0.79468116   -2.6322496   -2.6322496   -1.7178726  0.030262059   -2.6322496   0.91437701   458614 
  232000    0.7949705   -2.6322733   -2.6322733   -1.7175395   0.03999642   -2.6322733   0.91473387   458602 
  233000   0.79352703   -2.6304147   -2.6304147   -1.7173178   0.04442795   -2.6304147   0.91309683   458590 
  234000   0.79479164   -2.6310278   -2.6310278   -1.7164539  0.030341456   -2.6310278   0.91457392   458579 
  235000   0.79358059   -2.6303421   -2.6303421   -1.7171378  0.031645681   -2.6303421   0.91320425   458567 
  236000   0.79434304   -2.6302669   -2.6302669   -1.7161614  0.034565303   -2.6302669   0.91410556   458555 
  237000   0.79404708   -2.6297433   -2.6297433   -1.7159544  0.030870382   -2.6297433   0.91378889   458543 
  238000   0.79486187   -2.6301913   -2.6301913   -1.7154408   0.02562477   -2.6301913   0.91475049   458531 
  239000   0.79445393   -2.6297835   -2.6297835   -1.7154806  0.032285297   -2.6297835   0.91430295   458520 
  240000   0.79540707   -2.6314273   -2.6314273   -1.7160035  0.029663209   -2.6314273   0.91542383   458508 
  241000   0.79288991   -2.6287637   -2.6287637    -1.716213  0.029626807   -2.6287637   0.91255076   458496 
  242000   0.79218567   -2.6279036   -2.6279036   -1.7161395  0.034845115   -2.6279036    0.9117641   458484 
  243000   0.79376959    -2.629445    -2.629445    -1.715836  0.022391468    -2.629445   0.91360902   458473 
  244000   0.79406007   -2.6290541   -2.6290541   -1.7150868  0.032000772   -2.6290541   0.91396728   458461 
  245000   0.79312466   -2.6282564   -2.6282564   -1.7153419  0.029810806   -2.6282564   0.91291451   458449 
  246000   0.79391092   -2.6281422   -2.6281422   -1.7142987  0.038552687   -2.6281422   0.91384344   458437 
  247000   0.79360597   -2.6284231   -2.6284231   -1.7149088  0.032537314   -2.6284231   0.91351435   458426 
  248000   0.79365482   -2.6280818   -2.6280818   -1.7144873  0.039284359   -2.6280818   0.91359449   458414 
  249000   0.79457718   -2.6301749   -2.6301749   -1.7154947  0.024868916   -2.6301749   0.91468018   458402 
  250000   0.79356217   -2.6286773   -2.6286773   -1.7151416  0.036154152   -2.6286773   0.91353567   458390 
  251000    0.7940554   -2.6298602   -2.6298602   -1.7157348   0.02945731   -2.6298602    0.9141254   458379 
  252000   0.79619316   -2.6312952   -2.6312952   -1.7146848   0.02964449   -2.6312952   0.91661041   458367 
  253000   0.79425558   -2.6294369   -2.6294369   -1.7150332  0.035067087   -2.6294369   0.91440373   458355 
  254000   0.79555687    -2.630327    -2.630327   -1.7144012  0.029852497    -2.630327   0.91592585   458343 
  255000   0.79496868   -2.6297699   -2.6297699   -1.7144973  0.034002684   -2.6297699   0.91527263   458331 
  256000   0.79460881   -2.6301212   -2.6301212    -1.715241  0.026133638   -2.6301212   0.91488025   458320 
  257000   0.79348378   -2.6285896   -2.6285896   -1.7149807  0.034433428   -2.6285896   0.91360885   458308 
  258000    0.7944381   -2.6295398   -2.6295398   -1.7148082  0.027304312   -2.6295398    0.9147316   458296 
  259000   0.79475015   -2.6298697   -2.6298697   -1.7147549   0.03373227   -2.6298697   0.91511487   458284 
  260000   0.79502123   -2.6298752   -2.6298752   -1.7144262  0.033326596   -2.6298752   0.91544897   458273 
  261000   0.79476413   -2.6293816   -2.6293816   -1.7142047  0.036298061   -2.6293816   0.91517689   458261 
  262000   0.79551655   -2.6292999   -2.6292999   -1.7132326  0.029710973   -2.6292999    0.9160673   458249 
  263000   0.79580196    -2.630579    -2.630579    -1.714159  0.029836851    -2.630579   0.91641996   458237 
  264000   0.79311312   -2.6285652   -2.6285652   -1.7152197  0.028436337   -2.6285652    0.9133455   458226 
  265000   0.79388789   -2.6294734   -2.6294734   -1.7152117    0.0293177   -2.6294734   0.91426167   458214 
  266000   0.79340456   -2.6285333   -2.6285333   -1.7148043  0.027909146   -2.6285333   0.91372898   458202 
  267000   0.79310949   -2.6279238   -2.6279238   -1.7145108  0.027144642   -2.6279238   0.91341308   458190 
  268000   0.79336475   -2.6285233   -2.6285233   -1.7147943  0.027095176   -2.6285233     0.913729   458179 
  269000   0.79304908   -2.6278319   -2.6278319   -1.7144425  0.037868299   -2.6278319   0.91338936   458167 
  270000   0.79275502   -2.6283488   -2.6283488   -1.7152742  0.040588604   -2.6283488   0.91307459   458155 
  271000   0.79360813   -2.6276894   -2.6276894   -1.7136083   0.03571214   -2.6276894   0.91408112   458143 
  272000   0.79381833   -2.6283896   -2.6283896   -1.7140424  0.035392919   -2.6283896   0.91434718   458131 
  273000   0.79239955   -2.6276729   -2.6276729    -1.714938   0.03406334   -2.6276729    0.9127349   458120 
  274000   0.79364679   -2.6292527   -2.6292527   -1.7150572  0.024974885   -2.6292527   0.91419549   458108 
  275000   0.79383352   -2.6301395   -2.6301395    -1.715705  0.028922005   -2.6301395   0.91443453   458096 
  276000   0.79299015   -2.6296885   -2.6296885   -1.7162015  0.025458661   -2.6296885   0.91348696   458084 
  277000   0.79368199   -2.6295257   -2.6295257   -1.7152198  0.025698853   -2.6295257   0.91430589   458073 
  278000   0.79305161    -2.628364    -2.628364   -1.7147603   0.02835411    -2.628364   0.91360364   458061 
  279000   0.79463878   -2.6296829   -2.6296829   -1.7142268  0.033533967   -2.6296829   0.91545606   458049 
  280000   0.79579185   -2.6309249   -2.6309249   -1.7141164  0.034407217   -2.6309249   0.91680847   458037 
  281000   0.79430389     -2.62928     -2.62928   -1.7141638  0.042664147     -2.62928   0.91511621   458026 
  282000   0.79445136    -2.629958    -2.629958   -1.7146479  0.031276921    -2.629958   0.91531008   458014 
  283000   0.79270132   -2.6284192   -2.6284192   -1.7151015  0.037386796   -2.6284192   0.91331774   458002 
  284000   0.79273113   -2.6292493   -2.6292493   -1.7158733  0.035119962   -2.6292493   0.91337602   457990 
  285000   0.79331304   -2.6295581   -2.6295581   -1.7154896  0.027829455   -2.6295581   0.91406844   457979 
  286000   0.79200706   -2.6283611   -2.6283611   -1.7157735  0.033232179   -2.6283611   0.91258759   457967 
  287000   0.79181931   -2.6280384   -2.6280384   -1.7156433   0.03208617   -2.6280384   0.91239515   457955 
  288000   0.79317214   -2.6306858   -2.6306858   -1.7167078  0.039916871   -2.6306858   0.91397794   457943 
  289000   0.79213877   -2.6293899   -2.6293899   -1.7165788  0.035915253   -2.6293899   0.91281111   457931 
  290000   0.79277342   -2.6303714   -2.6303714   -1.7168071  0.035224389   -2.6303714   0.91356437   457920 
  291000   0.79308647    -2.630715    -2.630715   -1.7167659  0.022329253    -2.630715   0.91394907   457908 
  292000   0.79181297   -2.6295706   -2.6295706   -1.7170652  0.033485907   -2.6295706   0.91250541   457896 
  293000   0.79216033   -2.6301658   -2.6301658   -1.7172362  0.030515767   -2.6301658   0.91292965   457884 
  294000   0.79237908   -2.6304765   -2.6304765   -1.7172728  0.026599471   -2.6304765   0.91320368   457873 
  295000    0.7927923   -2.6302726   -2.6302726   -1.7165687  0.032723439   -2.6302726   0.91370386   457861 
  296000   0.79253883   -2.6312617   -2.6312617    -1.717826  0.029591227   -2.6312617   0.91343567   457849 
  297000   0.79174595   -2.6301465   -2.6301465   -1.7176007  0.032607567   -2.6301465   0.91254576   457837 
  298000   0.79301384   -2.6309324   -2.6309324   -1.7169033  0.038897655   -2.6309324   0.91402905   457826 
  299000   0.79371766   -2.6315054   -2.6315054   -1.7166412  0.033174239   -2.6315054   0.91486425   457814 
  300000   0.79339934   -2.6312251   -2.6312251   -1.7167038  0.029631428   -2.6312251   0.91452133   457802 
  301000   0.79330875   -2.6315894   -2.6315894   -1.7171485  0.031137685   -2.6315894   0.91444087   457790 
  302000   0.79268554   -2.6314162   -2.6314162   -1.7176718   0.03141928   -2.6314162   0.91374446   457779 
  303000   0.79226356   -2.6314705   -2.6314705   -1.7181885  0.034580796   -2.6314705   0.91328198   457767 
  304000   0.79254957   -2.6321708   -2.6321708   -1.7185352  0.026015988   -2.6321708   0.91363562   457755 
  305000   0.79169875   -2.6309817   -2.6309817    -1.718303   0.03457865   -2.6309817   0.91267874   457743 
  306000    0.7929621   -2.6322027   -2.6322027   -1.7180436  0.028421954   -2.6322027   0.91415911   457731 
  307000   0.79327434    -2.633855    -2.633855    -1.719314  0.026925113    -2.633855   0.91454105   457720 
  308000   0.79271389   -2.6329084   -2.6329084   -1.7189896  0.033484918   -2.6329084   0.91391888   457708 
  309000   0.79307595   -2.6329809   -2.6329809   -1.7186206  0.025249666   -2.6329809   0.91436027   457696 
  310000   0.79252655   -2.6331086   -2.6331086   -1.7193578  0.031645237   -2.6331086   0.91375081   457684 
  311000   0.79107331   -2.6313764   -2.6313764   -1.7192792  0.030073094   -2.6313764   0.91209721   457673 
  312000   0.79122691   -2.6317631   -2.6317631   -1.7194649  0.034356599   -2.6317631   0.91229823   457661 
  313000   0.79183045   -2.6334726   -2.6334726   -1.7204546  0.034834841   -2.6334726   0.91301806   457649 
  314000   0.79206063   -2.6332113   -2.6332113   -1.7199039  0.032426032   -2.6332113   0.91330741   457637 
  315000   0.79068158   -2.6326309   -2.6326309   -1.7208917  0.031776419   -2.6326309   0.91173918   457626 
  316000   0.78898773   -2.6305444   -2.6305444   -1.7207346  0.036354905   -2.6305444   0.90980985   457614 
  317000   0.79007015   -2.6322111   -2.6322111   -1.7211292  0.034076413   -2.6322111   0.91108191   457602 
  318000   0.79104621   -2.6327557   -2.6327557   -1.7205243  0.031698907   -2.6327557    0.9122314   457590 
  319000   0.79277588   -2.6341597   -2.6341597   -1.7199117  0.028291707   -2.6341597   0.91424802   457579 
  320000   0.79050848   -2.6324724   -2.6324724   -1.7208153  0.034532377   -2.6324724   0.91165711   457567 
  321000   0.79120886   -2.6324692   -2.6324692   -1.7199804   0.03881089   -2.6324692   0.91248876   457555 
  322000   0.79323855   -2.6355832   -2.6355832   -1.7207296  0.030276655   -2.6355832   0.91485356   457543 
  323000   0.79209178   -2.6341557   -2.6341557   -1.7206007  0.038179317   -2.6341557   0.91355494   457531 
  324000   0.79099382   -2.6328313   -2.6328313   -1.7205208  0.041422114   -2.6328313   0.91231055   457520 
  325000   0.79231168   -2.6338148   -2.6338148   -1.7199603  0.032550305   -2.6338148   0.91385449   457508 
  326000    0.7921949   -2.6330913   -2.6330913   -1.7193475  0.032157931   -2.6330913   0.91374377   457496 
  327000   0.79146667   -2.6329192   -2.6329192   -1.7199914  0.033904948   -2.6329192   0.91292775   457484 
  328000   0.79061902   -2.6317414   -2.6317414   -1.7197695   0.03898668   -2.6317414   0.91197195   457473 
  329000   0.79386956   -2.6348624   -2.6348624    -1.719117  0.027890222   -2.6348624   0.91574543   457461 
  330000   0.79217074   -2.6332739   -2.6332739   -1.7194641  0.024017685   -2.6332739   0.91380978   457449 
  331000   0.79149461   -2.6319193   -2.6319193   -1.7188655  0.037208299   -2.6319193   0.91305379   457437 
  332000   0.79172438   -2.6326975   -2.6326975   -1.7193567  0.024605705   -2.6326975    0.9133408   457426 
  333000   0.79165671   -2.6329158   -2.6329158   -1.7196291  0.034523334   -2.6329158    0.9132867   457414 
  334000   0.79147856   -2.6334127   -2.6334127   -1.7203076  0.031831386   -2.6334127   0.91310513   457402 
  335000   0.79004482     -2.63172     -2.63172    -1.720245  0.028784657     -2.63172   0.91147498   457390 
  336000    0.7905782   -2.6314974   -2.6314974   -1.7193851   0.02410499   -2.6314974   0.91211227   457379 
  337000    0.7907501   -2.6321139   -2.6321139   -1.7197794  0.029984318   -2.6321139   0.91233454   457367 
  338000   0.79079815   -2.6324242   -2.6324242   -1.7200103  0.031059305   -2.6324242   0.91241391   457355 
  339000   0.79256499   -2.6332431   -2.6332431   -1.7187667  0.033854223   -2.6332431   0.91447647   457343 
  340000   0.79280422   -2.6345314   -2.6345314   -1.7197549  0.029262898   -2.6345314    0.9147765   457331 
  341000   0.79341128   -2.6338353   -2.6338353   -1.7183364  0.033811478   -2.6338353   0.91549897   457320 
  342000   0.79151796   -2.6326762   -2.6326762   -1.7193379  0.028522368   -2.6326762   0.91333829   457308 
  343000   0.79172061   -2.6328218   -2.6328218   -1.7192257  0.035487399   -2.6328218    0.9135961   457296 
  344000   0.79112043   -2.6321533   -2.6321533   -1.7192259  0.033340652   -2.6321533   0.91292748   457284 
  345000   0.79235904   -2.6335968   -2.6335968    -1.719218  0.034387802   -2.6335968   0.91437879   457273 
  346000   0.79000551   -2.6329195   -2.6329195   -1.7212327  0.023735218   -2.6329195   0.91168676   457261 
  347000   0.78924907   -2.6329141   -2.6329141   -1.7220764   0.02734287   -2.6329141   0.91083771   457249 
  348000   0.79067729   -2.6334222   -2.6334222   -1.7209123  0.029363738   -2.6334222   0.91250991   457237 
  349000    0.7917934   -2.6352541   -2.6352541   -1.7214341  0.033734168   -2.6352541   0.91381998   457226 
  350000   0.79063499   -2.6329215   -2.6329215   -1.7204145   0.02370016   -2.6329215   0.91250699   457214 
  351000   0.79009709   -2.6335921   -2.6335921    -1.721682  0.032000993   -2.6335921    0.9119101   457202 
  352000   0.79032818    -2.634037    -2.634037   -1.7218362  0.030911777    -2.634037   0.91220077   457190 
  353000   0.79083404   -2.6350354   -2.6350354   -1.7222289  0.027856709   -2.6350354   0.91280659   457179 
  354000   0.79077633    -2.635155    -2.635155   -1.7223911  0.029660044    -2.635155   0.91276394   457167 
  355000   0.79096933   -2.6354529   -2.6354529   -1.7224422  0.032249785   -2.6354529   0.91301068   457155 
  356000   0.79023743    -2.634618    -2.634618   -1.7224282  0.031815772    -2.634618   0.91218979   457143 
  357000   0.79016519   -2.6347292   -2.6347292   -1.7225988  0.032040665   -2.6347292   0.91213034   457131 
  358000   0.79000345   -2.6342156   -2.6342156     -1.72225  0.031244069   -2.6342156   0.91196559   457120 
  359000    0.7910999   -2.6353409   -2.6353409   -1.7220856   0.03455912   -2.6353409   0.91325529   457108 
  360000    0.7906883   -2.6341426   -2.6341426   -1.7213385  0.039684458   -2.6341426   0.91280409   457096 
  361000   0.79011335   -2.6342985   -2.6342985   -1.7221342  0.035262637   -2.6342985    0.9121643   457084 
  362000   0.79052394   -2.6345202   -2.6345202   -1.7218599  0.036105728   -2.6345202   0.91266027   457073 
  363000   0.78924665   -2.6346897   -2.6346897   -1.7234801  0.026639665   -2.6346897   0.91120957   457061 
  364000   0.79048827   -2.6358588   -2.6358588   -1.7231918  0.021698117   -2.6358588   0.91266702   457049 
  365000   0.78851257   -2.6344233   -2.6344233   -1.7240134  0.026758354   -2.6344233   0.91040985   457037 
  366000   0.79057773   -2.6351862   -2.6351862   -1.7223699  0.025250508   -2.6351862   0.91281624   457026 
  367000   0.78923181   -2.6342317   -2.6342317   -1.7229455  0.027887547   -2.6342317   0.91128614   457014 
  368000   0.78965767   -2.6344904   -2.6344904   -1.7226886  0.034719202   -2.6344904    0.9118018   457002 
  369000   0.78961069    -2.635007    -2.635007   -1.7232355   0.03353462    -2.635007   0.91177149   456990 
  370000   0.79008727   -2.6350368   -2.6350368   -1.7226931  0.035452538   -2.6350368   0.91234376   456979 
  371000    0.7908412     -2.63607     -2.63607   -1.7228316  0.035133609     -2.63607   0.91323833   456967 
  372000    0.7901907    -2.635693    -2.635693   -1.7231819  0.024776737    -2.635693   0.91251112   456955 
  373000   0.78941184   -2.6358304   -2.6358304   -1.7241948  0.034407585   -2.6358304   0.91163564   456943 
  374000   0.79018739   -2.6363833   -2.6363833   -1.7238281  0.034353775   -2.6363833   0.91255523   456931 
  375000   0.78999219    -2.636326    -2.636326   -1.7239742  0.029224301    -2.636326   0.91235176   456920 
  376000   0.78949042   -2.6363176   -2.6363176   -1.7245214  0.033604943   -2.6363176   0.91179623   456908 
  377000   0.78989653   -2.6369193   -2.6369193   -1.7246301  0.028567853   -2.6369193    0.9122892   456896 
  378000   0.78948274   -2.6357118   -2.6357118   -1.7238765  0.034805856   -2.6357118   0.91183525   456884 
  379000   0.78841693   -2.6351449   -2.6351449   -1.7245187  0.035304539   -2.6351449   0.91062619   456873 
  380000   0.78872968   -2.6350682   -2.6350682   -1.7240568  0.030913883   -2.6350682   0.91101135   456861 
  381000   0.78945628   -2.6362748   -2.6362748   -1.7244002  0.032787222   -2.6362748   0.91187455   456849 
  382000   0.78911359   -2.6350686   -2.6350686    -1.723566  0.025604856   -2.6350686   0.91150266   456837 
  383000   0.78799356   -2.6345594   -2.6345594   -1.7243285  0.036228076   -2.6345594   0.91023083   456826 
  384000   0.78940547   -2.6369336   -2.6369336   -1.7250479  0.018490253   -2.6369336   0.91188571   456814 
  385000   0.78789525   -2.6343256   -2.6343256   -1.7241605  0.041807427   -2.6343256   0.91016509   456802 
  386000   0.78805564   -2.6353305   -2.6353305   -1.7249562  0.029800891   -2.6353305   0.91037428   456790 
  387000   0.78920464   -2.6370313   -2.6370313   -1.7253078  0.028082721   -2.6370313   0.91172358   456779 
  388000   0.78761238    -2.635457    -2.635457    -1.725549  0.030854617    -2.635457   0.90990804   456767 
  389000   0.78914028    -2.636574    -2.636574   -1.7248769  0.031278584    -2.636574   0.91169713   456755 
  390000   0.78885279   -2.6360472   -2.6360472   -1.7246582  0.035336208   -2.6360472   0.91138893   456743 
  391000   0.78801818   -2.6352006   -2.6352006    -1.724752  0.031223164   -2.6352006   0.91044861   456731 
  392000    0.7892007    -2.636287    -2.636287   -1.7244502  0.022766622    -2.636287    0.9118368   456720 
  393000    0.7910126   -2.6384983   -2.6384983   -1.7245441  0.026437364   -2.6384983   0.91395428   456708 
  394000   0.79080902   -2.6376218   -2.6376218   -1.7238787  0.026483136   -2.6376218   0.91374306   456696 
  395000   0.78864656   -2.6342383   -2.6342383     -1.72297   0.03319855   -2.6342383   0.91126838   456684 
  396000   0.78905637   -2.6351699   -2.6351699    -1.723406  0.035998327   -2.6351699   0.91176388   456673 
  397000   0.79005502   -2.6366198   -2.6366198    -1.723678  0.040493818   -2.6366198   0.91294182   456661 
  398000   0.79093626   -2.6368832   -2.6368832    -1.722899  0.036958496   -2.6368832   0.91398415   456649 
  399000   0.79010391   -2.6358295   -2.6358295   -1.7227832  0.032813116   -2.6358295    0.9130463   456637 
  400000   0.78955681   -2.6363774   -2.6363774   -1.7239413  0.026220715   -2.6363774   0.91243605   456626 
  401000   0.78859416   -2.6347572   -2.6347572   -1.7234097  0.031392904   -2.6347572   0.91134753   456614 
  402000   0.78806874   -2.6337829   -2.6337829   -1.7230186  0.029864209   -2.6337829   0.91076426   456602 
  403000   0.78757126   -2.6326406   -2.6326406   -1.7224273  0.025884903   -2.6326406   0.91021324   456590 
  404000   0.78848373   -2.6334464   -2.6334464   -1.7221567  0.031471201   -2.6334464   0.91128976   456579 
  405000   0.78826094   -2.6335588   -2.6335588   -1.7225026  0.031431468   -2.6335588   0.91105621   456567 
  406000   0.78759173   -2.6327009   -2.6327009   -1.7223942  0.029903289   -2.6327009   0.91030668   456555 
  407000   0.78874881     -2.63358     -2.63358    -1.721912  0.033631577     -2.63358   0.91166801   456543 
  408000   0.78815052   -2.6338549   -2.6338549   -1.7228545  0.023238365   -2.6338549   0.91100043   456531 
  409000   0.78794024   -2.6325151   -2.6325151   -1.7217357  0.033159993   -2.6325151   0.91077931   456520 
  410000   0.78698552   -2.6317065   -2.6317065   -1.7220068  0.030689119   -2.6317065   0.90969967   456508 
  411000   0.78699769   -2.6314365   -2.6314365   -1.7216989  0.024709917   -2.6314365   0.90973765   456496 
  412000   0.78743518   -2.6327806   -2.6327806   -1.7225133  0.030663563   -2.6327806    0.9102673   456484 
  413000   0.78729156   -2.6334967   -2.6334967   -1.7233735  0.033892283   -2.6334967    0.9101232   456473 
  414000   0.78711143   -2.6336087   -2.6336087   -1.7236698  0.024406262   -2.6336087   0.90993889   456461 
  415000   0.78891059   -2.6364224   -2.6364224   -1.7243797  0.035826313   -2.6364224   0.91204279   456449 
  416000   0.78871396   -2.6362654   -2.6362654   -1.7244259  0.029300075   -2.6362654   0.91183944   456437 
  417000   0.78812208   -2.6359892   -2.6359892   -1.7248121  0.036858654   -2.6359892   0.91117712   456426 
  418000   0.78856687   -2.6363836   -2.6363836   -1.7246683  0.032241273   -2.6363836   0.91171533   456414 
  419000   0.78811773   -2.6375383   -2.6375383   -1.7263183  0.029132656   -2.6375383   0.91122001   456402 
  420000    0.7881808   -2.6376383   -2.6376383   -1.7263215  0.038350725   -2.6376383   0.91131689   456390 
  421000   0.78807714   -2.6382643   -2.6382643   -1.7270453  0.030483964   -2.6382643   0.91121899   456379 
  422000   0.78843287   -2.6397771   -2.6397771   -1.7281228   0.04105556   -2.6397771   0.91165428   456367 
  423000   0.78906462   -2.6395143   -2.6395143   -1.7271056  0.032977777   -2.6395143   0.91240876   456355 
  424000   0.78869047   -2.6390482   -2.6390482   -1.7270481  0.036134935   -2.6390482    0.9120001   456343 
  425000   0.78865351   -2.6401863   -2.6401863   -1.7282049  0.042725549   -2.6401863   0.91198134   456331 
  426000   0.78933564   -2.6394168   -2.6394168   -1.7266246  0.041066886   -2.6394168   0.91279214   456320 
  427000   0.78776312   -2.6386423   -2.6386423   -1.7276446  0.035061431   -2.6386423   0.91099764   456308 
  428000    0.7869573   -2.6374306   -2.6374306   -1.7273409  0.033665515   -2.6374306   0.91008969   456296 
  429000   0.78722349   -2.6374417   -2.6374417   -1.7270203  0.034575168   -2.6374417   0.91042148   456284 
  430000   0.78783196   -2.6383261   -2.6383261    -1.727179  0.026029598   -2.6383261   0.91114714   456273 
  431000   0.78858783   -2.6392127   -2.6392127   -1.7271675  0.033851293   -2.6392127    0.9120453   456261 
  432000   0.78719498   -2.6383274   -2.6383274    -1.727869  0.031618283   -2.6383274   0.91045834   456249 
  433000   0.78782056   -2.6383726   -2.6383726   -1.7271667  0.030182357   -2.6383726   0.91120584   456237 
  434000   0.78633498   -2.6355175   -2.6355175    -1.726008  0.038128314   -2.6355175   0.90950952   456226 
  435000   0.78753081   -2.6371619   -2.6371619   -1.7262453  0.029741272   -2.6371619   0.91091664   456214 
  436000   0.78632663   -2.6348507   -2.6348507    -1.725303  0.025839193   -2.6348507   0.90954771   456202 
  437000   0.78647098   -2.6348554   -2.6348554   -1.7251168  0.033204128   -2.6348554   0.90973862   456190 
  438000   0.78630874   -2.6339382   -2.6339382   -1.7243654  0.030638462   -2.6339382   0.90957288   456179 
  439000   0.78686242   -2.6350139   -2.6350139   -1.7247766  0.026327631   -2.6350139    0.9102373   456167 
  440000   0.78570551   -2.6349998   -2.6349998   -1.7260769   0.03081368   -2.6349998    0.9089229   456155 
  441000   0.78586698   -2.6362876   -2.6362876    -1.727154  0.027784997   -2.6362876   0.90913361   456143 
  442000   0.78649343   -2.6357195   -2.6357195   -1.7258373  0.024835517   -2.6357195   0.90988226   456131 
  443000   0.78644408   -2.6355661   -2.6355661    -1.725719  0.023719293   -2.6355661   0.90984711   456120 
  444000   0.78666079   -2.6363254   -2.6363254   -1.7262036   0.03338197   -2.6363254   0.91012176   456108 
  445000   0.78814234   -2.6383327   -2.6383327   -1.7264729  0.028965834   -2.6383327   0.91185983   456096 
  446000   0.78726416   -2.6369501   -2.6369501   -1.7260823  0.032609973   -2.6369501   0.91086776   456084 
  447000   0.78745213    -2.637292    -2.637292   -1.7261847  0.040426162    -2.637292   0.91110722   456073 
  448000   0.78786996   -2.6381068   -2.6381068   -1.7264921  0.034135364   -2.6381068   0.91161465   456061 
  449000   0.78812962    -2.638556    -2.638556   -1.7266169  0.038682089    -2.638556   0.91193909   456049 
  450000   0.78810007   -2.6383237   -2.6383237   -1.7263948  0.036386939   -2.6383237   0.91192889   456037 
  451000   0.78831847    -2.638987    -2.638987   -1.7267834  0.025969016    -2.638987    0.9122036   456026 
  452000   0.78703193    -2.638573    -2.638573   -1.7278342  0.038002806    -2.638573   0.91073885   456014 
  453000    0.7866344   -2.6380859   -2.6380859   -1.7277831  0.030814229   -2.6380859   0.91030279   456002 
  454000   0.78678008   -2.6386068   -2.6386068   -1.7281115  0.023905152   -2.6386068   0.91049533   455990 
  455000   0.78657563   -2.6388707   -2.6388707   -1.7285901  0.036156036   -2.6388707   0.91028069   455979 
  456000    0.7846279   -2.6367845   -2.6367845    -1.728734  0.032520724   -2.6367845   0.90805054   455967 
  457000   0.78649937   -2.6378377   -2.6378377   -1.7275973  0.029103262   -2.6378377   0.91024035   455955 
  458000   0.78580881   -2.6374541   -2.6374541   -1.7279891  0.030652941   -2.6374541   0.90946508   455943 
  459000   0.78622895    -2.638706    -2.638706   -1.7287307  0.032682156    -2.638706   0.90997528   455931 
  460000   0.78541474    -2.637663    -2.637663   -1.7286082  0.034899868    -2.637663   0.90905486   455920 
  461000   0.78551043   -2.6379568   -2.6379568   -1.7287672  0.030618785   -2.6379568   0.90918954   455908 
  462000   0.78668713   -2.6402851   -2.6402851   -1.7297096    0.0253792   -2.6402851   0.91057548   455896 
  463000   0.78578009   -2.6403852   -2.6403852   -1.7308357  0.029467064   -2.6403852   0.90954954   455884 
  464000   0.78531543   -2.6393298   -2.6393298   -1.7302962  0.036221032   -2.6393298   0.90903362   455873 
  465000   0.78521556   -2.6392018   -2.6392018   -1.7302598  0.026324549   -2.6392018   0.90894195   455861 
  466000   0.78433251   -2.6382578   -2.6382578   -1.7303141  0.032687816   -2.6382578   0.90794365   455849 
  467000   0.78578878   -2.6392861   -2.6392861   -1.7296327  0.029017711   -2.6392861   0.90965338   455837 
  468000   0.78816113   -2.6412059   -2.6412059   -1.7287842  0.032300539   -2.6412059    0.9124217   455826 
  469000   0.78615519   -2.6394918   -2.6394918   -1.7293683  0.035314474   -2.6394918   0.91012346   455814 
  470000   0.78492842   -2.6389265   -2.6389265   -1.7301993  0.031001675   -2.6389265   0.90872717   455802 
  471000   0.78519509   -2.6398446   -2.6398446   -1.7307847  0.031169874   -2.6398446   0.90905984   455790 
  472000   0.78541684   -2.6403438   -2.6403438   -1.7310053   0.02239586   -2.6403438   0.90933851   455779 
  473000   0.78490864   -2.6387971   -2.6387971   -1.7300231  0.026333143   -2.6387971   0.90877406   455767 
  474000   0.78683347   -2.6410493   -2.6410493   -1.7300226  0.021675475   -2.6410493   0.91102663   455755 
  475000   0.78648745   -2.6403053   -2.6403053   -1.7296554  0.038613801   -2.6403053   0.91064997   455743 
  476000   0.78618038   -2.6402775   -2.6402775   -1.7299591  0.026813243   -2.6402775   0.91031839   455731 
  477000   0.78692237   -2.6402411   -2.6402411   -1.7290415  0.028102639   -2.6402411   0.91119954   455720 
  478000   0.78590498   -2.6388438   -2.6388438   -1.7287983  0.030442908   -2.6388438   0.91004543   455708 
  479000    0.7867991   -2.6400597   -2.6400597   -1.7289549  0.025281928   -2.6400597   0.91110478   455696 
  480000    0.7858891   -2.6395019   -2.6395019   -1.7294269  0.023081457   -2.6395019   0.91007498   455684 
  481000   0.78420686   -2.6383677   -2.6383677   -1.7302188   0.02503881   -2.6383677   0.90814883   455673 
  482000   0.78612661   -2.6395129   -2.6395129   -1.7291169   0.03583174   -2.6395129   0.91039597   455661 
  483000   0.78590335   -2.6388623   -2.6388623   -1.7287009  0.028644915   -2.6388623   0.91016139   455649 
  484000   0.78640179   -2.6393896   -2.6393896    -1.728627  0.035175896   -2.6393896   0.91076262   455637 
  485000   0.78584397   -2.6391876   -2.6391876    -1.729049  0.028642383   -2.6391876   0.91013855   455626 
  486000   0.78524532   -2.6383051   -2.6383051   -1.7288359  0.036950436   -2.6383051   0.90946918   455614 
  487000   0.78671203   -2.6394397   -2.6394397   -1.7282478   0.03533755   -2.6394397   0.91119191   455602 
  488000   0.78634299   -2.6398903   -2.6398903   -1.7291019  0.032895476   -2.6398903   0.91078847   455590 
  489000   0.78533426   -2.6388596   -2.6388596   -1.7292175  0.022618228   -2.6388596   0.90964207   455579 
  490000   0.78397896   -2.6374411   -2.6374411    -1.729345  0.031030433   -2.6374411   0.90809616   455567 
  491000   0.78459576   -2.6378914   -2.6378914   -1.7290569  0.033904245   -2.6378914   0.90883454   455555 
  492000   0.78347286   -2.6382706   -2.6382706   -1.7307129  0.031221827   -2.6382706   0.90755774   455543 
  493000   0.78238927   -2.6370139   -2.6370139   -1.7306875  0.031917551   -2.6370139   0.90632641   455531 
  494000   0.78433261   -2.6387523   -2.6387523   -1.7301528  0.023918838   -2.6387523   0.90859953   455520 
  495000   0.78410952   -2.6372051   -2.6372051     -1.72884  0.025213636   -2.6372051   0.90836503   455508 
  496000   0.78496635   -2.6379268   -2.6379268   -1.7285452  0.032312857   -2.6379268   0.90938159   455496 
  497000   0.78454388   -2.6379392   -2.6379392   -1.7290231  0.030685813   -2.6379392   0.90891611   455484 
  498000    0.7852424    -2.638465    -2.638465   -1.7287177  0.034691653    -2.638465   0.90974733   455473 
  499000   0.78360938    -2.637336    -2.637336   -1.7294567  0.027792375    -2.637336   0.90787931   455461 
  500000    0.7858859   -2.6397249   -2.6397249    -1.729184  0.025991839   -2.6397249   0.91054085   455449 
  501000   0.78613165   -2.6400004   -2.6400004   -1.7291508  0.026137443   -2.6400004   0.91084957   455437 
  502000   0.78529917   -2.6387002   -2.6387002   -1.7287932  0.033566925   -2.6387002     0.909907   455426 
  503000   0.78474108   -2.6383928   -2.6383928   -1.7291085  0.030985551   -2.6383928   0.90928431   455414 
  504000   0.78577648   -2.6399271   -2.6399271   -1.7294191  0.030271256   -2.6399271   0.91050803   455402 
  505000   0.78424919   -2.6378365   -2.6378365   -1.7290742  0.025856816   -2.6378365   0.90876225   455390 
  506000    0.7845955   -2.6392582   -2.6392582   -1.7300727  0.035335131   -2.6392582    0.9091855   455379 
  507000   0.78452995   -2.6395106   -2.6395106   -1.7303771  0.034798685   -2.6395106    0.9091335   455367 
  508000   0.78328531   -2.6381978   -2.6381978   -1.7304827  0.027416845   -2.6381978    0.9077151   455355 
  509000   0.78433064   -2.6393279   -2.6393279   -1.7303774  0.034057446   -2.6393279   0.90895044   455343 
  510000    0.7853488   -2.6400619   -2.6400619   -1.7299075  0.032986334   -2.6400619   0.91015435   455331 
  511000   0.78337954   -2.6379587   -2.6379587   -1.7300646   0.03033624   -2.6379587   0.90789408   455320 
  512000   0.78461631   -2.6390615   -2.6390615   -1.7297101  0.031098303   -2.6390615    0.9093514   455308 
  513000   0.78460266   -2.6389941   -2.6389941   -1.7296346  0.021837983   -2.6389941   0.90935954   455296 
  514000   0.78429633   -2.6380865   -2.6380865    -1.729058  0.032772297   -2.6380865   0.90902846   455284 
  515000   0.78520539   -2.6391441   -2.6391441     -1.72904  0.035769692   -2.6391441   0.91010408   455273 
  516000   0.78402019   -2.6382816   -2.6382816   -1.7295273  0.026912401   -2.6382816   0.90875432   455261 
  517000   0.78487895   -2.6389449   -2.6389449   -1.7291713  0.025136234   -2.6389449   0.90977368   455249 
  518000   0.78320116   -2.6377019   -2.6377019    -1.729849  0.031685506   -2.6377019   0.90785284   455237 
  519000   0.78398799   -2.6387844   -2.6387844   -1.7299975   0.03062144   -2.6387844   0.90878685   455226 
  520000   0.78279264   -2.6378718   -2.6378718   -1.7304466  0.024429757   -2.6378718   0.90742515   455214 
  521000   0.78346358   -2.6385306   -2.6385306   -1.7303037   0.02577944   -2.6385306   0.90822686   455202 
  522000   0.78312031   -2.6376686   -2.6376686   -1.7298158  0.030450567   -2.6376686   0.90785285   455190 
  523000   0.78306807   -2.6376776   -2.6376776   -1.7298634  0.027596753   -2.6376776   0.90781422   455179 
  524000   0.78296603   -2.6376464   -2.6376464   -1.7299265  0.025614519   -2.6376464   0.90771987   455167 
  525000   0.78387898   -2.6394653   -2.6394653    -1.730663  0.019280628   -2.6394653   0.90880224   455155 
  526000   0.78351572   -2.6380593   -2.6380593   -1.7296543  0.027029119   -2.6380593   0.90840504   455143 
  527000   0.78371146   -2.6379152   -2.6379152   -1.7292593  0.038232149   -2.6379152   0.90865594   455131 
  528000   0.78561761   -2.6403815   -2.6403815   -1.7294935   0.03267207   -2.6403815   0.91088799   455120 
  529000   0.78566089   -2.6416396   -2.6416396   -1.7306774  0.019898506   -2.6416396    0.9109622   455108 
  530000   0.78422564   -2.6398402   -2.6398402   -1.7305182  0.029303231   -2.6398402   0.90932202   455096 
  531000   0.78343701   -2.6392845   -2.6392845    -1.730853  0.029654462   -2.6392845   0.90843154   455084 
  532000   0.78445351   -2.6413902   -2.6413902    -1.731758  0.028033931   -2.6413902    0.9096322   455073 
  533000   0.78305982   -2.6407678   -2.6407678   -1.7327277   0.02672813   -2.6407678   0.90804006   455061 
  534000   0.78473385   -2.6417021   -2.6417021   -1.7316968  0.026623651   -2.6417021   0.91000527   455049 
  535000   0.78408563   -2.6416389   -2.6416389   -1.7323614  0.030765298   -2.6416389   0.90927756   455037 
  536000   0.78462988   -2.6429025   -2.6429025   -1.7329718  0.026609174   -2.6429025   0.90993069   455026 
  537000   0.78513543   -2.6433483   -2.6433483   -1.7328073  0.025662651   -2.6433483     0.910541   455014 
  538000    0.7834649   -2.6415475   -2.6415475   -1.7329199  0.027052361   -2.6415475    0.9086276   455002 
  539000   0.78337271   -2.6411239   -2.6411239   -1.7325793  0.033214052   -2.6411239   0.90854465   454990 
  540000   0.78395271   -2.6417162   -2.6417162   -1.7324769  0.035124096   -2.6417162    0.9092393   454979 
  541000   0.78422818   -2.6417609   -2.6417609   -1.7321782  0.032701057   -2.6417609   0.90958279   454967 
  542000   0.78242592     -2.63887     -2.63887   -1.7313536  0.041635197     -2.63887   0.90751639   454955 
  543000   0.78427858   -2.6404303   -2.6404303    -1.730741  0.036965872   -2.6404303   0.90968923   454943 
  544000   0.78501834   -2.6416035   -2.6416035   -1.7310322  0.037242308   -2.6416035    0.9105713   454931 
  545000   0.78514508   -2.6421741   -2.6421741   -1.7314338  0.030252973   -2.6421741   0.91074033   454920 
  546000    0.7832768   -2.6399892   -2.6399892   -1.7313921   0.03145111   -2.6399892   0.90859716   454908 
  547000    0.7829851   -2.6395036   -2.6395036   -1.7312208  0.022118319   -2.6395036   0.90828275   454896 
  548000   0.78268199   -2.6399215   -2.6399215   -1.7319664  0.026204821   -2.6399215   0.90795508   454884 
  549000   0.78318749   -2.6401772   -2.6401772   -1.7316138  0.024555569   -2.6401772   0.90856346   454873 
  550000   0.78356988   -2.6403066   -2.6403066   -1.7312755  0.019465523   -2.6403066   0.90903105   454861 
  551000   0.78273771   -2.6391791   -2.6391791   -1.7310895  0.031628945   -2.6391791    0.9080896   454849 
  552000   0.78023911   -2.6368483   -2.6368483   -1.7316336  0.030764881   -2.6368483   0.90521474   454837 
  553000   0.78151876    -2.637394    -2.637394   -1.7306727    0.0285527    -2.637394   0.90672129   454826 
  554000   0.78106193   -2.6381641   -2.6381641   -1.7319489  0.032007489   -2.6381641   0.90621519   454814 
  555000   0.78134825   -2.6376835   -2.6376835   -1.7311122  0.029756523   -2.6376835   0.90657129   454802 
  556000    0.7811971   -2.6383418   -2.6383418   -1.7319219  0.028053746   -2.6383418   0.90641985   454790 
  557000   0.78216637   -2.6387695   -2.6387695   -1.7312031  0.034630169   -2.6387695   0.90756643   454779 
  558000   0.78123844   -2.6379594   -2.6379594   -1.7314458  0.035330102   -2.6379594   0.90651365   454767 
  559000   0.78249931    -2.638612    -2.638612   -1.7306113  0.033917085    -2.638612   0.90800067   454755 
  560000   0.78287863   -2.6393259   -2.6393259   -1.7308611  0.028197562   -2.6393259    0.9084648   454743 
  561000   0.78137773   -2.6381781   -2.6381781    -1.731431  0.030506205   -2.6381781   0.90674706   454731 
  562000   0.78250961   -2.6394802   -2.6394802   -1.7313977  0.024546249   -2.6394802   0.90808251   454720 
  563000   0.78174462   -2.6390574   -2.6390574   -1.7318387  0.032703498   -2.6390574    0.9072187   454708 
  564000     0.783838   -2.6409007   -2.6409007   -1.7312286  0.032737562   -2.6409007   0.90967209   454696 
  565000   0.78401319   -2.6415074   -2.6415074    -1.731608  0.037399329   -2.6415074   0.90989941   454684 
  566000   0.78373129   -2.6408372   -2.6408372    -1.731243  0.044524037   -2.6408372   0.90959425   454673 
  567000   0.78507035    -2.641587    -2.641587   -1.7304146  0.030767934    -2.641587    0.9111724   454661 
  568000   0.78405995   -2.6407914   -2.6407914   -1.7307677  0.037985521   -2.6407914   0.91002373   454649 
  569000   0.78465439   -2.6419845   -2.6419845   -1.7312468  0.028644906   -2.6419845   0.91073771   454637 
  570000   0.78199209   -2.6395783   -2.6395783   -1.7319087  0.029219259   -2.6395783   0.90766957   454626 
  571000   0.78111909   -2.6380198   -2.6380198   -1.7313396  0.033487144   -2.6380198   0.90668021   454614 
  572000   0.78183926   -2.6389854   -2.6389854   -1.7314453  0.030829481   -2.6389854   0.90754009   454602 
  573000   0.78111357   -2.6389683   -2.6389683   -1.7322466  0.025334779   -2.6389683   0.90672166   454590 
  574000   0.78137306   -2.6393961   -2.6393961   -1.7323513  0.028002842   -2.6393961   0.90704483   454579 
  575000   0.78140826   -2.6384275   -2.6384275   -1.7313179  0.024469952   -2.6384275   0.90710963   454567 
  576000   0.78137368   -2.6389839   -2.6389839   -1.7318904  0.028531966   -2.6389839   0.90709344   454555 
  577000   0.78211081   -2.6386209   -2.6386209   -1.7306478  0.029389851   -2.6386209   0.90797315   454543 
  578000   0.78182827   -2.6396284   -2.6396284   -1.7319593   0.01722408   -2.6396284    0.9076691   454531 
  579000   0.78191383   -2.6385445   -2.6385445   -1.7307541  0.030025563   -2.6385445    0.9077904   454520 
  580000   0.78060135   -2.6370188   -2.6370188   -1.7307282  0.027367679   -2.6370188   0.90629055   454508 
  581000   0.78112319   -2.6374597   -2.6374597   -1.7305393  0.031849209   -2.6374597   0.90692036   454496 
  582000   0.78241922   -2.6391562   -2.6391562   -1.7307071  0.028529479   -2.6391562    0.9084491   454484 
  583000   0.78181783   -2.6392853   -2.6392853   -1.7315125  0.032526926   -2.6392853   0.90777282   454473 
  584000   0.78237417   -2.6406043   -2.6406043   -1.7321615  0.026258198   -2.6406043   0.90844277   454461 
  585000   0.78141295   -2.6403493   -2.6403493   -1.7329987  0.028776946   -2.6403493   0.90735062   454449 
  586000   0.78199493   -2.6406363   -2.6406363   -1.7325859  0.026130217   -2.6406363   0.90805038   454437 
  587000   0.78195194   -2.6401703   -2.6401703   -1.7321479  0.029689382   -2.6401703   0.90802243   454426 
  588000    0.7815729   -2.6403989   -2.6403989   -1.7327927   0.03978168   -2.6403989   0.90760625   454414 
  589000   0.78255082   -2.6409026   -2.6409026   -1.7321368    0.0251012   -2.6409026   0.90876586   454402 
  590000   0.78219218   -2.6403004   -2.6403004    -1.731927  0.034297777   -2.6403004   0.90837336   454390 
  591000   0.78085014   -2.6398487   -2.6398487   -1.7330119   0.03319361   -2.6398487   0.90683679   454379 
  592000   0.78265585   -2.6422973   -2.6422973   -1.7333394  0.033208159   -2.6422973   0.90895784   454367 
  593000   0.78308999   -2.6422409   -2.6422409   -1.7327549  0.028940811   -2.6422409   0.90948606   454355 
  594000   0.78297305   -2.6426042   -2.6426042   -1.7332299  0.029547478   -2.6426042   0.90937426   454343 
  595000    0.7817954   -2.6418929   -2.6418929   -1.7338624   0.02656914   -2.6418929   0.90803048   454331 
  596000   0.78184319   -2.6420054   -2.6420054   -1.7338974  0.030025213   -2.6420054   0.90810798   454320 
  597000   0.78091811   -2.6420003   -2.6420003   -1.7349429  0.022159342   -2.6420003   0.90705745   454308 
  598000   0.78132127   -2.6425242   -2.6425242   -1.7349744  0.026133678   -2.6425242   0.90754971   454296 
  599000   0.78018314    -2.641556    -2.641556   -1.7353043  0.032527033    -2.641556   0.90625164   454284 
  600000   0.78057511   -2.6408563   -2.6408563   -1.7341274  0.036455324   -2.6408563    0.9067289   454273 
  601000   0.78169304    -2.641924    -2.641924   -1.7338725  0.025982345    -2.641924    0.9080515   454261 
  602000   0.78067849   -2.6404572   -2.6404572   -1.7335603  0.035968803   -2.6404572   0.90689691   454249 
  603000   0.78203758   -2.6406931   -2.6406931   -1.7321934   0.03143183   -2.6406931   0.90849973   454237 
  604000   0.78204216   -2.6394921   -2.6394921   -1.7309651  0.029654729   -2.6394921   0.90852706   454226 
  605000   0.78126584   -2.6398189   -2.6398189   -1.7321698  0.030904034   -2.6398189   0.90764916   454214 
  606000   0.78094843   -2.6404873   -2.6404873    -1.733183  0.027654473   -2.6404873   0.90730437   454202 
  607000   0.77999571   -2.6397251   -2.6397251   -1.7335036  0.021611715   -2.6397251   0.90622145   454190 
  608000   0.78131784   -2.6405418   -2.6405418   -1.7327623  0.024635849   -2.6405418   0.90777951   454179 
  609000   0.78090757   -2.6392711   -2.6392711   -1.7319443  0.027201679   -2.6392711   0.90732681   454167 
  610000   0.77961001   -2.6385332   -2.6385332   -1.7326901  0.025567653   -2.6385332   0.90584313   454155 
  611000   0.78235278   -2.6416578   -2.6416578   -1.7326038  0.030748746   -2.6416578   0.90905402   454143 
  612000   0.78062291   -2.6391098   -2.6391098   -1.7320418  0.030622286   -2.6391098   0.90706797   454131 
  613000   0.78114546   -2.6406551   -2.6406551    -1.732958  0.026110333   -2.6406551   0.90769714   454120 
  614000   0.78000112   -2.6393208   -2.6393208   -1.7329294  0.034101831   -2.6393208   0.90639137   454108 
  615000   0.78150209   -2.6410028   -2.6410028   -1.7328433  0.017083536   -2.6410028   0.90815955   454096 
  616000    0.7799287   -2.6399369   -2.6399369   -1.7335818  0.027926373   -2.6399369   0.90635511   454084 
  617000   0.78061378   -2.6400785   -2.6400785   -1.7329053  0.026285292   -2.6400785   0.90717322   454073 
  618000    0.7808746   -2.6405809   -2.6405809   -1.7330806  0.030258519   -2.6405809   0.90750031   454061 
  619000   0.78070824   -2.6396972   -2.6396972   -1.7323662  0.033646917   -2.6396972   0.90733095   454049 
  620000     0.781544   -2.6408958   -2.6408958   -1.7325695  0.034882557   -2.6408958   0.90832627   454037 
  621000   0.77971562   -2.6388974   -2.6388974   -1.7326742  0.038367074   -2.6388974   0.90622325   454026 
  622000   0.78096549    -2.641111    -2.641111   -1.7334111  0.032727025    -2.641111   0.90769989   454014 
  623000   0.78043314   -2.6401497   -2.6401497   -1.7330446  0.036296833   -2.6401497   0.90710513   454002 
  624000   0.78112079   -2.6410111   -2.6410111   -1.7330827  0.032710109   -2.6410111   0.90792839   453990 
  625000   0.78203172   -2.6426646   -2.6426646   -1.7336554  0.033556846   -2.6426646   0.90900923   453979 
  626000   0.78050124   -2.6410006   -2.6410006   -1.7337464  0.031612569   -2.6410006   0.90725423   453967 
  627000   0.78184324   -2.6425598   -2.6425598   -1.7337216  0.027100354   -2.6425598   0.90883819   453955 
  628000   0.78079924   -2.6412433   -2.6412433   -1.7335947  0.030620831   -2.6412433   0.90764861   453943 
  629000   0.78180426   -2.6433871   -2.6433871   -1.7345461  0.024024825   -2.6433871   0.90884093   453931 
  630000   0.78159249   -2.6420682   -2.6420682   -1.7334514  0.028650367   -2.6420682   0.90861676   453920 
  631000   0.78090639   -2.6422124   -2.6422124   -1.7343692  0.022418457   -2.6422124   0.90784316   453908 
  632000    0.7799894   -2.6408991   -2.6408991    -1.734098  0.028437765   -2.6408991   0.90680109   453896 
  633000   0.77957593   -2.6405215   -2.6405215   -1.7341772  0.030081975   -2.6405215   0.90634435   453884 
  634000    0.7796013   -2.6408548   -2.6408548    -1.734459  0.035761431   -2.6408548   0.90639582   453873 
  635000   0.78013185   -2.6426268   -2.6426268   -1.7355902  0.031192504   -2.6426268   0.90703663   453861 
  636000   0.77911555   -2.6406227   -2.6406227   -1.7347437  0.030831668   -2.6406227   0.90587897   453849 
  637000   0.77807861   -2.6401399   -2.6401399   -1.7354427  0.023876453   -2.6401399   0.90469724   453837 
  638000   0.77957518   -2.6413197   -2.6413197   -1.7348604  0.029793506   -2.6413197   0.90645931   453826 
  639000   0.77955178   -2.6410383   -2.6410383   -1.7345823  0.027463277   -2.6410383   0.90645608   453814 
  640000   0.78017218   -2.6408147   -2.6408147   -1.7336132   0.02847614   -2.6408147   0.90720146   453802 
  641000   0.77954671   -2.6405723   -2.6405723   -1.7340741  0.033905833   -2.6405723   0.90649813   453790 
  642000   0.78081523   -2.6414195   -2.6414195   -1.7334242  0.028259013   -2.6414195   0.90799523   453779 
  643000   0.78066521   -2.6419984   -2.6419984   -1.7341536   0.03404629   -2.6419984   0.90784478   453767 
  644000   0.78088075   -2.6423751   -2.6423751   -1.7342556  0.030657863   -2.6423751   0.90811946   453755 
  645000   0.77990351   -2.6413494   -2.6413494   -1.7343424  0.027325123   -2.6413494   0.90700697   453743 
  646000   0.77914059   -2.6407047   -2.6407047    -1.734561  0.029445412   -2.6407047   0.90614368   453731 
  647000    0.7799901   -2.6408595   -2.6408595   -1.7337059   0.02806138   -2.6408595   0.90715366   453720 
  648000   0.77997386   -2.6409065   -2.6409065   -1.7337477  0.030639102   -2.6409065   0.90715876   453708 
  649000    0.7794675   -2.6404855   -2.6404855   -1.7338917  0.035865383   -2.6404855   0.90659381   453696 
  650000   0.78083839   -2.6420843   -2.6420843    -1.733872  0.031794517   -2.6420843    0.9082123   453684 
  651000   0.77930478   -2.6398417   -2.6398417   -1.7333912  0.037429105   -2.6398417   0.90645051   453673 
  652000   0.77940783   -2.6409176   -2.6409176   -1.7343232  0.033170581   -2.6409176   0.90659435   453661 
  653000   0.77989902   -2.6399651   -2.6399651   -1.7327754  0.028710399   -2.6399651   0.90718968   453649 
  654000   0.78063075   -2.6408038   -2.6408038   -1.7327389  0.029827324   -2.6408038   0.90806486   453637 
  655000   0.78055558   -2.6413418   -2.6413418   -1.7333423  0.030514878   -2.6413418   0.90799944   453626 
  656000   0.77943577   -2.6405105   -2.6405105   -1.7337898  0.030939661   -2.6405105   0.90672078   453614 
  657000   0.77929954   -2.6403424   -2.6403424   -1.7337561  0.027345723   -2.6403424   0.90658629   453602 
[...]
29833000  0.010333051  -0.30603511  -0.30603511  -0.25872765 -0.0015414156  -0.30603511  0.047307463   115260 
29834000  0.010647802  -0.30755229  -0.30755229  -0.25880297 -0.00097029619  -0.30755229  0.048749321   115258 
29835000   0.01023756  -0.30565234  -0.30565234  -0.25878044 -0.00074008456  -0.30565234  0.046871907   115256 
29836000  0.010378636  -0.30616253  -0.30616253  -0.25864473 0.0013010966  -0.30616253  0.047517809   115256 
29837000  0.010447139   -0.3065912   -0.3065912  -0.25875934 0.0014477197   -0.3065912   0.04783186   115255 
29838000  0.010434073  -0.30658201  -0.30658201  -0.25880831 -0.0027026222  -0.30658201  0.047773699   115251 
29839000  0.010534027  -0.30693884  -0.30693884  -0.25870707 0.0002461527  -0.30693884  0.048231769   115250 
29840000  0.010486285  -0.30673791  -0.30673791  -0.25872432 0.00022071067  -0.30673791   0.04801359   115249 
29841000  0.010427743  -0.30642376  -0.30642376  -0.25867822 -0.00030553943  -0.30642376  0.047745543   115249 
29842000  0.010435725   -0.3065837   -0.3065837  -0.25880078 -1.4740064e-05   -0.3065837  0.047782918   115247 
29843000   0.01040607   -0.3064197   -0.3064197  -0.25877256 -0.0023637969   -0.3064197  0.047647138   115247 
29844000  0.010236772  -0.30573852  -0.30573852  -0.25886657 0.0014377466  -0.30573852  0.046871956   115247 
29845000  0.010428454  -0.30661403  -0.30661403   -0.2588644 0.0013523405  -0.30661403  0.047749628   115247 
29846000  0.010369424  -0.30633633  -0.30633633  -0.25885616 0.00053289851  -0.30633633  0.047480166   115245 
29847000  0.010527066  -0.30697691  -0.30697691  -0.25877408 0.00030833435  -0.30697691  0.048202825   115243 
29848000  0.010387366  -0.30638693  -0.30638693  -0.25882255 0.0025893214  -0.30638693  0.047564385   115240 
29849000  0.010429547  -0.30645632  -0.30645632  -0.25869879 -0.0020313212  -0.30645632  0.047757534   115240 
29850000  0.010506364  -0.30693707  -0.30693707  -0.25882778 0.0018410296  -0.30693707  0.048109282   115240 
29851000  0.010467451  -0.30668893  -0.30668893  -0.25875658 -0.0013174438  -0.30668893  0.047932345   115237 
29852000  0.010546069  -0.30702233  -0.30702233  -0.25872914 0.0017157725  -0.30702233  0.048293189   115235 
29853000  0.010447671  -0.30667081  -0.30667081  -0.25882614 0.0014739744  -0.30667081  0.047844677   115230 
29854000  0.010479901  -0.30684163  -0.30684163  -0.25884853 5.1081651e-05  -0.30684163  0.047993103   115228 
29855000  0.010332985  -0.30620945  -0.30620945  -0.25888792 3.158181e-05  -0.30620945   0.04732153   115225 
29856000  0.010514786  -0.30699342  -0.30699342  -0.25883805 0.0024448136  -0.30699342   0.04815537   115222 
29857000   0.01039585  -0.30643461  -0.30643461  -0.25882311 -0.0012995434  -0.30643461  0.047611493   115220 
29858000  0.010264346   -0.3057284   -0.3057284  -0.25871836 3.0457914e-05   -0.3057284  0.047010041   115218 
29859000  0.010432665  -0.30656388  -0.30656388  -0.25878254 0.0028827215  -0.30656388  0.047781348   115217 
29860000  0.010448533  -0.30656727  -0.30656727  -0.25871201 -0.0019054587  -0.30656727  0.047855267   115214 
29861000    0.0103563   -0.3060279   -0.3060279  -0.25859301 7.5194252e-05   -0.3060279  0.047434889   115209 
29862000  0.010313293  -0.30549071  -0.30549071  -0.25825034  0.002746087  -0.30549071  0.047240365   115203 
29863000  0.010373283  -0.30527108  -0.30527108  -0.25775139 -0.00039073428  -0.30527108   0.04751969   115192 
29864000  0.010087212  -0.30353583  -0.30353583   -0.2573222 0.0018993966  -0.30353583  0.046213621   115181 
29865000  0.010274687  -0.30391811  -0.30391811  -0.25684109 0.00063325188  -0.30391811  0.047077015   115170 
29866000  0.010402042  -0.30411445  -0.30411445  -0.25644895 0.0002718508  -0.30411445  0.047665501   115158 
29867000  0.010151971  -0.30245133  -0.30245133  -0.25592689 0.00028658959  -0.30245133  0.046524443   115146 
29868000  0.010180121  -0.30223205  -0.30223205  -0.25557373 -0.0033381084  -0.30223205  0.046658313   115134 
29869000  0.010149931  -0.30143979  -0.30143979    -0.254915 0.00076632125  -0.30143979  0.046524792   115122 
29870000   0.01006453  -0.30040863  -0.30040863  -0.25427088 0.0022881641  -0.30040863  0.046137744   115111 
29871000   0.01010003  -0.29993554  -0.29993554  -0.25363023 -0.0019600286  -0.29993554  0.046305309   115099 
29872000  0.010161785  -0.29973064  -0.29973064  -0.25313734 0.00064752627  -0.29973064  0.046593296   115087 
29873000  0.010056578  -0.29862228  -0.29862228  -0.25250657 -0.0017454571  -0.29862228  0.046115712   115075 
29874000 0.0099287531  -0.29728679  -0.29728679  -0.25175288 0.0010631183  -0.29728679  0.045533908   115064 
29875000  0.010053529  -0.29720525  -0.29720525  -0.25109431 -0.0011386138  -0.29720525  0.046110946   115052 
29876000 0.0098853319  -0.29585017  -0.29585017  -0.25050594 -0.00049899061  -0.29585017  0.045344234   115040 
29877000 0.0098556461  -0.29511259  -0.29511259  -0.24989981 0.0011101977  -0.29511259  0.045212781   115028 
29878000  0.009924762  -0.29468279  -0.29468279  -0.24914859 -0.0020436386  -0.29468279  0.045534204   115017 
29879000  0.009995569  -0.29443017  -0.29443017  -0.24856632 -0.00095181226  -0.29443017  0.045863847   115005 
29880000  0.009816932  -0.29281094  -0.29281094  -0.24776205 -0.00038896654  -0.29281094  0.045048887   114993 
29881000 0.0098480365  -0.29222829  -0.29222829  -0.24703195 8.9485629e-05  -0.29222829  0.045196339   114981 
29882000 0.0097849377  -0.29125267  -0.29125267  -0.24634162 0.00058118583  -0.29125267  0.044911051   114970 
29883000 0.0098889985  -0.29104377  -0.29104377  -0.24565036 -5.1536316e-05  -0.29104377  0.045393409   114958 
29884000 0.0098615944  -0.29036786  -0.29036786  -0.24509552 -0.00028508907  -0.29036786  0.045272342   114946 
29885000 0.0096856806  -0.28886824  -0.28886824  -0.24439883 0.0025338306  -0.28886824  0.044469404   114934 
29886000 0.0099933778  -0.28942082  -0.28942082   -0.2435339 0.0016960181  -0.28942082   0.04588691   114922 
29887000 0.0096849819  -0.28744947  -0.28744947  -0.24297438 -0.00061141566  -0.28744947  0.044475096   114911 
29888000 0.0097834425  -0.28726749  -0.28726749  -0.24233555 0.00045023667  -0.28726749  0.044931936   114899 
29889000 0.0097219373  -0.28644374  -0.28644374  -0.24178961 -0.0019162588  -0.28644374  0.044654128   114887 
29890000 0.0098593107  -0.28626606  -0.28626606  -0.24097623 1.082758e-05  -0.28626606  0.045289832   114875 
29891000 0.0098707334  -0.28576375  -0.28576375   -0.2404171  0.001759105  -0.28576375  0.045346646   114864 
29892000  0.009825876  -0.28489877  -0.28489877  -0.23975348 0.00080926729  -0.28489877  0.045145285   114852 
29893000 0.0098834003  -0.28450377  -0.28450377  -0.23908944 0.0011578815  -0.28450377  0.045414328   114840 
29894000 0.0098124503  -0.28341436  -0.28341436  -0.23832134 -0.0007664119  -0.28341436  0.045093023   114828 
29895000 0.0097656331  -0.28251215  -0.28251215  -0.23762998 0.0010888161  -0.28251215  0.044882175   114817 
29896000 0.0096190142   -0.2809986   -0.2809986  -0.23678565 0.00029300875   -0.2809986  0.044212946   114805 
29897000 0.0098075634  -0.28125139  -0.28125139  -0.23616708 0.0013268222  -0.28125139  0.045084308   114793 
29898000 0.0098266164  -0.28049419  -0.28049419  -0.23531757 0.0042996297  -0.28049419  0.045176615   114781 
29899000 0.0096573612  -0.27915103  -0.27915103  -0.23474829  0.003748009  -0.27915103  0.044402741   114770 
29900000 0.0095863673  -0.27809602  -0.27809602  -0.23401509 0.0045036581  -0.27809602  0.044080934   114758 
29901000 0.0094718952  -0.27687111  -0.27687111  -0.23331199 0.0018614016  -0.27687111  0.043559112   114746 
29902000 0.0093976297  -0.27586269  -0.27586269  -0.23264059 0.0016444687  -0.27586269  0.043222101   114734 
29903000 0.0095253937  -0.27570514  -0.27570514  -0.23189084 0.0054831856  -0.27570514  0.043814304   114722 
29904000 0.0093663721   -0.2743258   -0.2743258  -0.23123883 0.00033885741   -0.2743258  0.043086978   114711 
29905000 0.0092052383  -0.27307164  -0.27307164  -0.23072148 0.00083239836  -0.27307164  0.042350164   114699 
29906000 0.0093018157  -0.27272366  -0.27272366  -0.22992469 0.0024600108  -0.27272366  0.042798961   114687 
29907000 0.0092595541  -0.27181966  -0.27181966  -0.22921069 0.0034790626  -0.27181966  0.042608968   114675 
29908000 0.0091726753  -0.27071583  -0.27071583   -0.2285026 0.0020067052  -0.27071583  0.042213233   114664 
29909000 0.0090324232  -0.26919424  -0.26919424   -0.2276221 0.0033926433  -0.26919424  0.041572135   114652 
29910000 0.0090143635  -0.26848448  -0.26848448  -0.22699113 0.0058275997  -0.26848448  0.041493358   114640 
29911000 0.0090763334  -0.26794125  -0.26794125  -0.22615827 0.0014600133  -0.26794125   0.04178298   114628 
29912000  0.009133625  -0.26747683  -0.26747683  -0.22542608 0.0011886153  -0.26747683  0.042050758   114617 
29913000 0.0090682012  -0.26646185  -0.26646185  -0.22470793 0.0043479128  -0.26646185  0.041753922   114605 
29914000 0.0089599672  -0.26542381  -0.26542381  -0.22416392 -0.00024288779  -0.26542381  0.041259885   114593 
29915000 0.0090083445  -0.26487556  -0.26487556  -0.22338856 0.0015506288  -0.26487556  0.041487003   114581 
29916000 0.0089446196  -0.26405233  -0.26405233  -0.22285485 0.0052042165  -0.26405233   0.04119748   114570 
29917000 0.0088314764  -0.26276124  -0.26276124  -0.22208062 -0.0021373608  -0.26276124  0.040680621   114558 
29918000 0.0088660682  -0.26215735  -0.26215735  -0.22131311 0.0017087944  -0.26215735  0.040844241   114546 
29919000 0.0088778438  -0.26166975  -0.26166975  -0.22076697  0.004491233  -0.26166975  0.040902774   114534 
29920000 0.0088107261  -0.26063211  -0.26063211  -0.22003431 0.0022029184  -0.26063211  0.040597797   114522 
29921000 0.0088502688  -0.26005143  -0.26005143  -0.21926752 0.0021364372  -0.26005143  0.040783917   114511 
29922000 0.0086414283  -0.25844807  -0.25844807  -0.21862236 0.0015671063  -0.25844807   0.03982571   114499 
29923000 0.0088849835  -0.25883507  -0.25883507  -0.21788259 0.0011698756  -0.25883507  0.040952473   114487 
29924000 0.0088662573  -0.25805166  -0.25805166  -0.21718122 -0.00093545306  -0.25805166  0.040870445   114475 
29925000 0.0088780643  -0.25752519  -0.25752519  -0.21659639 0.0039497946  -0.25752519  0.040928804   114464 
29926000 0.0088926152  -0.25717405  -0.25717405  -0.21617386 0.0044731846  -0.25717405  0.041000184   114452 
29927000 0.0088486669  -0.25648772  -0.25648772  -0.21568589 0.0025511459  -0.25648772  0.040801834   114440 
29928000 0.0088490718  -0.25577353  -0.25577353  -0.21496555 -0.0040268502  -0.25577353   0.04080798   114428 
29929000 0.0088311921  -0.25501244  -0.25501244  -0.21428299 0.0032440364  -0.25501244  0.040729442   114417 
29930000 0.0088790844  -0.25464457  -0.25464457  -0.21368996 0.0035580822  -0.25464457  0.040954617   114405 
29931000 0.0087712169  -0.25335183  -0.25335183   -0.2128905 0.0013913516  -0.25335183  0.040461324   114393 
29932000 0.0087901529  -0.25257089  -0.25257089  -0.21201796 -0.0013916364  -0.25257089  0.040552929   114381 
29933000 0.0089042789  -0.25241653  -0.25241653  -0.21133313 0.0012338363  -0.25241653  0.041083395   114370 
29934000 0.0087637945  -0.25125766  -0.25125766  -0.21081821 -0.0027707599  -0.25125766  0.040439457   114358 
29935000 0.0086592404  -0.25025425  -0.25025425  -0.21029305 -0.0025334627  -0.25025425  0.039961199   114346 
29936000 0.0087653846  -0.25013585  -0.25013585  -0.20968057 0.0027198463  -0.25013585  0.040455285   114334 
29937000 0.0087036017  -0.24921233  -0.24921233  -0.20903798 0.0020019007  -0.24921233  0.040174352   114322 
29938000 0.0085636713  -0.24789375  -0.24789375  -0.20836149 0.00019136237  -0.24789375  0.039532261   114311 
29939000 0.0087019415   -0.2478314   -0.2478314  -0.20765662 -0.0012446006   -0.2478314  0.040174772   114299 
29940000 0.0086818112  -0.24710998  -0.24710998  -0.20702394 0.0021422378  -0.24710998  0.040086044   114287 
29941000 0.0085810892  -0.24598885  -0.24598885   -0.2063637 -0.00051035644  -0.24598885  0.039625146   114275 
29942000  0.008524843  -0.24508717  -0.24508717  -0.20571797 0.0014917584  -0.24508717  0.039369206   114264 
29943000 0.0084488372  -0.24421782  -0.24421782  -0.20519553 0.0018611209  -0.24421782  0.039022296   114252 
29944000 0.0084789127  -0.24363963  -0.24363963  -0.20447431 0.0030222528  -0.24363963  0.039165318   114240 
29945000 0.0084465778  -0.24283104  -0.24283104  -0.20381098 0.0028394743  -0.24283104  0.039020057   114228 
29946000 0.0085447297  -0.24276634  -0.24276634  -0.20328906 0.0020425392  -0.24276634  0.039477284   114217 
29947000   0.00850027   -0.2418445   -0.2418445   -0.2025685 0.0028645868   -0.2418445  0.039276004   114205 
29948000 0.0085637344  -0.24151768  -0.24151768  -0.20194428 -0.00068653883  -0.24151768  0.039573403   114193 
29949000 0.0084294044  -0.24019697  -0.24019697  -0.20124022 -0.00062845037  -0.24019697  0.038956751   114181 
29950000  0.008338907  -0.23925948  -0.23925948  -0.20071725 -0.00050173875  -0.23925948  0.038542228   114170 
29951000 0.0084537353  -0.23920684  -0.23920684  -0.20012977 0.00063897305  -0.23920684  0.039077069   114158 
29952000 0.0085797382  -0.23913753  -0.23913753  -0.19947385 0.0004361007  -0.23913753  0.039663682   114146 
29953000 0.0082358043  -0.23687667  -0.23687667  -0.19879898 0.00057026703  -0.23687667  0.038077697   114134 
29954000  0.008357619  -0.23693155  -0.23693155  -0.19828659 0.0014349266  -0.23693155  0.038644962   114122 
29955000 0.0083228658  -0.23616608  -0.23616608  -0.19767811 4.5513736e-05  -0.23616608  0.038487975   114111 
29956000 0.0082682357  -0.23547078  -0.23547078  -0.19723142 0.0041575972  -0.23547078  0.038239367   114099 
29957000 0.0083269488  -0.23514039  -0.23514039  -0.19662543 0.0020696512  -0.23514039  0.038514957   114087 
29958000 0.0082698028  -0.23430657  -0.23430657  -0.19605191 -0.0013856625  -0.23430657  0.038254661   114075 
29959000 0.0081442609  -0.23315901  -0.23315901  -0.19548145 0.0024157708  -0.23315901   0.03767756   114064 
29960000 0.0081692762  -0.23265894  -0.23265894  -0.19486168 0.0011602665  -0.23265894  0.037797264   114052 
29961000 0.0082384567   -0.2324967   -0.2324967  -0.19437535 0.0038101126   -0.2324967  0.038121356   114040 
29962000 0.0080719098  -0.23124838  -0.23124838  -0.19389374 -0.0027227461  -0.23124838  0.037354633   114028 
29963000  0.008174165  -0.23126872  -0.23126872  -0.19343722 0.0021010156  -0.23126872  0.037831493   114017 
29964000 0.0080872118  -0.23022793  -0.23022793  -0.19279494 5.3708155e-06  -0.23022793  0.037432998   114005 
29965000 0.0080667739  -0.22952319  -0.22952319  -0.19218087 -0.00057637607  -0.22952319  0.037342328   113993 
29966000 0.0079957883  -0.22861586  -0.22861586  -0.19159823 0.0012670607  -0.22861586  0.037017621   113981 
29967000 0.0080100142  -0.22815308  -0.22815308  -0.19106602 -0.00013023506  -0.22815308  0.037087061   113970 
29968000 0.0080545347  -0.22784793  -0.22784793   -0.1905508 -0.00091088205  -0.22784793  0.037297122   113958 
29969000 0.0078494778  -0.22632636  -0.22632636  -0.18997495 6.1052853e-05  -0.22632636  0.036351419   113946 
29970000 0.0079709755   -0.2263729   -0.2263729  -0.18945493 0.0013121884   -0.2263729   0.03691797   113934 
29971000 0.0078124082  -0.22503012  -0.22503012  -0.18884275 -0.0014181964  -0.22503012  0.036187369   113922 
29972000 0.0079473809  -0.22500596  -0.22500596  -0.18818983 -0.00044104015  -0.22500596  0.036816123   113911 
29973000 0.0077780247  -0.22382607  -0.22382607  -0.18779069 -0.00020158045  -0.22382607  0.036035379   113899 
29974000 0.0079068164  -0.22397939  -0.22397939  -0.18734346 0.0017293193  -0.22397939  0.036635927   113887 
29975000 0.0078199057  -0.22292766  -0.22292766  -0.18669061 1.0107338e-05  -0.22292766  0.036237048   113875 
29976000 0.0077522334  -0.22229779  -0.22229779  -0.18637086 0.0034276101  -0.22229779  0.035926928   113864 
29977000 0.0080594366  -0.22306875  -0.22306875  -0.18571418 -0.00084774392  -0.22306875  0.037354567   113852 
29978000 0.0077431213  -0.22131979  -0.22131979  -0.18542752 -0.00041767547  -0.22131979  0.035892265   113840 
29979000 0.0076880926  -0.22073592  -0.22073592  -0.18509497 -0.00025625926  -0.22073592  0.035640943   113828 
29980000 0.0077309797  -0.22048226  -0.22048226  -0.18463904 0.00092230245  -0.22048226  0.035843225   113817 
29981000 0.0076114815  -0.21946873  -0.21946873  -0.18417582 0.0016166852  -0.21946873  0.035292916   113805 
29982000 0.0075957777  -0.21871568  -0.21871568  -0.18349187 -0.0012557819  -0.21871568  0.035223814   113793 
29983000  0.007790622  -0.21912911  -0.21912911  -0.18299794 0.0010173774  -0.21912911  0.036131174   113781 
29984000 0.0076722966   -0.2182234   -0.2182234  -0.18263755 -0.00044444373   -0.2182234  0.035585847   113770 
29985000 0.0076629595  -0.21776543  -0.21776543  -0.18221914 0.0021756115  -0.21776543  0.035546289   113758 
29986000 0.0075770525   -0.2169511   -0.2169511   -0.1817996 0.0010251506   -0.2169511  0.035151499   113746 
29987000 0.0076314814  -0.21681496  -0.21681496  -0.18140722 0.0025474139  -0.21681496  0.035407741   113734 
29988000 0.0075146206  -0.21597549  -0.21597549  -0.18110627 0.00031166497  -0.21597549  0.034869222   113722 
29989000 0.0075875513  -0.21579823  -0.21579823  -0.18058719 -0.0006462172  -0.21579823  0.035211039   113711 
29990000 0.0075603969  -0.21524526  -0.21524526  -0.18015653 0.0012031053  -0.21524526  0.035088729   113699 
29991000 0.0074010162  -0.21429394  -0.21429394  -0.17994129  0.003058767  -0.21429394   0.03435265   113687 
29992000 0.0075213609  -0.21436111  -0.21436111  -0.17944618 0.00097240362  -0.21436111  0.034914928   113675 
29993000 0.0073939294  -0.21354332  -0.21354332  -0.17921662 -0.00022455358  -0.21354332    0.0343267   113664 
29994000 0.0073994615  -0.21318686  -0.21318686  -0.17883085 -0.00062046722  -0.21318686   0.03435601   113652 
29995000 0.0073460836  -0.21261691  -0.21261691  -0.17850514 0.00022308709  -0.21261691  0.034111776   113640 
29996000 0.0073271216  -0.21207228  -0.21207228  -0.17804497 0.0012324549  -0.21207228  0.034027318   113628 
29997000 0.0071978273  -0.21142053  -0.21142053  -0.17799219 0.00038192193  -0.21142053  0.033428344   113623 
29998000 0.0073394875  -0.21197542  -0.21197542  -0.17788797 0.0033833637  -0.21197542  0.034087446   113619 
29999000 0.0070964097  -0.21075231  -0.21075231  -0.17779236 -0.00086389743  -0.21075231  0.032959948   113614 
30000000 0.0072349026  -0.21142703  -0.21142703  -0.17782295 -0.00024187362  -0.21142703  0.033604079   113611 
Loop time of 115350 on 128 procs for 30000000 steps with 113611 atoms

Performance: 112353.744 tau/day, 260.078 timesteps/s
98.6% CPU use with 128 MPI tasks x 1 OpenMP threads

MPI task timing breakdown:
Section |  min time  |  avg time  |  max time  |%varavg|  %CPU | %total
-----------------------------------------------------------------------
Pair    | 8879.3     | 23269      | 46507      |4308.3 |  98.7 | 20.17
Bond    | 10.934     | 14.134     | 33.978     | 167.0 | 100.0 |  0.01
Neigh   | 4706.7     | 14457      | 23970      |2668.1 |  99.0 | 12.53
Comm    | 24096      | 49175      | 65692      |3228.8 |  98.3 | 42.63
Output  | 2262.5     | 2664.1     | 2713.2     |  77.4 |  99.4 |  2.31
Modify  | 15558      | 24258      | 34020      |3997.9 |  98.5 | 21.03
Other   |            | 1512       |            |       |       |  1.31

Nlocal:        887.586 ave        2314 max         108 min
Histogram: 10 13 20 37 30 10 4 0 3 1
Nghost:        6260.36 ave        9161 max        1340 min
Histogram: 1 2 11 10 15 12 22 18 22 15
Neighs:        1345.08 ave        4523 max           0 min
Histogram: 39 14 11 18 20 12 7 4 2 1

Total # of neighbors = 172170
Ave neighs/atom = 1.5154342
Ave special neighs/atom = 0.0000000
Neighbor list builds = 3164670
Dangerous builds = 2698100

Total wall time: 32:02:58
