#LAMMPS data file for rigid bodies
1331 atoms
3 atom types

0 20   xlo xhi
0 20   ylo yhi
0 26.5 zlo zhi

Masses

1 1.0
2 1.0
3 1.0

Atoms

1	1	2	0	3	3	5.6
2	1	2	0	3	4	5.6
3	1	2	0	3	5	5.6
4	1	2	0	3	6	5.6
5	1	2	0	3	7	5.6
6	1	2	0	3	8	5.6
7	1	2	0	3	9	5.6
8	1	2	0	3	10	5.6
9	1	2	0	3	11	5.6
10	1	2	0	3	12	5.6
11	1	2	0	3	13	5.6
12	1	2	0	4	3	5.6
13	1	2	0	4	4	5.6
14	1	2	0	4	5	5.6
15	1	2	0	4	6	5.6
16	1	2	0	4	7	5.6
17	1	2	0	4	8	5.6
18	1	2	0	4	9	5.6
19	1	2	0	4	10	5.6
20	1	2	0	4	11	5.6
21	1	2	0	4	12	5.6
22	1	2	0	4	13	5.6
23	1	2	0	5	3	5.6
24	1	2	0	5	4	5.6
25	1	2	0	5	5	5.6
26	1	2	0	5	6	5.6
27	1	2	0	5	7	5.6
28	1	2	0	5	8	5.6
29	1	2	0	5	9	5.6
30	1	2	0	5	10	5.6
31	1	2	0	5	11	5.6
32	1	2	0	5	12	5.6
33	1	2	0	5	13	5.6
34	1	2	0	6	3	5.6
35	1	2	0	6	4	5.6
36	1	2	0	6	5	5.6
37	1	2	0	6	6	5.6
38	1	2	0	6	7	5.6
39	1	2	0	6	8	5.6
40	1	2	0	6	9	5.6
41	1	2	0	6	10	5.6
42	1	2	0	6	11	5.6
43	1	2	0	6	12	5.6
44	1	2	0	6	13	5.6
45	1	2	0	7	3	5.6
46	1	2	0	7	4	5.6
47	1	2	0	7	5	5.6
48	1	2	0	7	6	5.6
49	1	2	0	7	7	5.6
50	1	2	0	7	8	5.6
51	1	2	0	7	9	5.6
52	1	2	0	7	10	5.6
53	1	2	0	7	11	5.6
54	1	2	0	7	12	5.6
55	1	2	0	7	13	5.6
56	1	2	0	8	3	5.6
57	1	2	0	8	4	5.6
58	1	2	0	8	5	5.6
59	1	2	0	8	6	5.6
60	1	2	0	8	7	5.6
61	1	2	0	8	8	5.6
62	1	2	0	8	9	5.6
63	1	2	0	8	10	5.6
64	1	2	0	8	11	5.6
65	1	2	0	8	12	5.6
66	1	2	0	8	13	5.6
67	1	2	0	9	3	5.6
68	1	2	0	9	4	5.6
69	1	2	0	9	5	5.6
70	1	2	0	9	6	5.6
71	1	2	0	9	7	5.6
72	1	2	0	9	8	5.6
73	1	2	0	9	9	5.6
74	1	2	0	9	10	5.6
75	1	2	0	9	11	5.6
76	1	2	0	9	12	5.6
77	1	2	0	9	13	5.6
78	1	2	0	10	3	5.6
79	1	2	0	10	4	5.6
80	1	2	0	10	5	5.6
81	1	2	0	10	6	5.6
82	1	2	0	10	7	5.6
83	1	2	0	10	8	5.6
84	1	2	0	10	9	5.6
85	1	2	0	10	10	5.6
86	1	2	0	10	11	5.6
87	1	2	0	10	12	5.6
88	1	2	0	10	13	5.6
89	1	2	0	11	3	5.6
90	1	2	0	11	4	5.6
91	1	2	0	11	5	5.6
92	1	2	0	11	6	5.6
93	1	2	0	11	7	5.6
94	1	2	0	11	8	5.6
95	1	2	0	11	9	5.6
96	1	2	0	11	10	5.6
97	1	2	0	11	11	5.6
98	1	2	0	11	12	5.6
99	1	2	0	11	13	5.6
100	1	2	0	12	3	5.6
101	1	2	0	12	4	5.6
102	1	2	0	12	5	5.6
103	1	2	0	12	6	5.6
104	1	2	0	12	7	5.6
105	1	2	0	12	8	5.6
106	1	2	0	12	9	5.6
107	1	2	0	12	10	5.6
108	1	2	0	12	11	5.6
109	1	2	0	12	12	5.6
110	1	2	0	12	13	5.6
111	1	2	0	13	3	5.6
112	1	2	0	13	4	5.6
113	1	2	0	13	5	5.6
114	1	2	0	13	6	5.6
115	1	2	0	13	7	5.6
116	1	2	0	13	8	5.6
117	1	2	0	13	9	5.6
118	1	2	0	13	10	5.6
119	1	2	0	13	11	5.6
120	1	2	0	13	12	5.6
121	1	2	0	13	13	5.6
122	1	2	0	3	3	6.6
123	1	2	0	3	4	6.6
124	1	2	0	3	5	6.6
125	1	2	0	3	6	6.6
126	1	2	0	3	7	6.6
127	1	2	0	3	8	6.6
128	1	2	0	3	9	6.6
129	1	2	0	3	10	6.6
130	1	2	0	3	11	6.6
131	1	2	0	3	12	6.6
132	1	2	0	3	13	6.6
133	1	2	0	4	3	6.6
134	1	2	0	4	4	6.6
135	1	2	0	4	5	6.6
136	1	3	0	4	6	6.6
137	1	3	0	4	7	6.6
138	1	3	0	4	8	6.6
139	1	3	0	4	9	6.6
140	1	3	0	4	10	6.6
141	1	2	0	4	11	6.6
142	1	2	0	4	12	6.6
143	1	2	0	4	13	6.6
144	1	2	0	5	3	6.6
145	1	2	0	5	4	6.6
146	1	3	0	5	5	6.6
147	1	3	0	5	6	6.6
148	1	3	0	5	7	6.6
149	1	3	0	5	8	6.6
150	1	3	0	5	9	6.6
151	1	3	0	5	10	6.6
152	1	3	0	5	11	6.6
153	1	2	0	5	12	6.6
154	1	2	0	5	13	6.6
155	1	2	0	6	3	6.6
156	1	3	0	6	4	6.6
157	1	3	0	6	5	6.6
158	1	3	0	6	6	6.6
159	1	3	0	6	7	6.6
160	1	3	0	6	8	6.6
161	1	3	0	6	9	6.6
162	1	3	0	6	10	6.6
163	1	3	0	6	11	6.6
164	1	3	0	6	12	6.6
165	1	2	0	6	13	6.6
166	1	2	0	7	3	6.6
167	1	3	0	7	4	6.6
168	1	3	0	7	5	6.6
169	1	3	0	7	6	6.6
170	1	3	0	7	7	6.6
171	1	3	0	7	8	6.6
172	1	3	0	7	9	6.6
173	1	3	0	7	10	6.6
174	1	3	0	7	11	6.6
175	1	3	0	7	12	6.6
176	1	2	0	7	13	6.6
177	1	2	0	8	3	6.6
178	1	3	0	8	4	6.6
179	1	3	0	8	5	6.6
180	1	3	0	8	6	6.6
181	1	3	0	8	7	6.6
182	1	3	0	8	8	6.6
183	1	3	0	8	9	6.6
184	1	3	0	8	10	6.6
185	1	3	0	8	11	6.6
186	1	3	0	8	12	6.6
187	1	2	0	8	13	6.6
188	1	2	0	9	3	6.6
189	1	3	0	9	4	6.6
190	1	3	0	9	5	6.6
191	1	3	0	9	6	6.6
192	1	3	0	9	7	6.6
193	1	3	0	9	8	6.6
194	1	3	0	9	9	6.6
195	1	3	0	9	10	6.6
196	1	3	0	9	11	6.6
197	1	3	0	9	12	6.6
198	1	2	0	9	13	6.6
199	1	2	0	10	3	6.6
200	1	3	0	10	4	6.6
201	1	3	0	10	5	6.6
202	1	3	0	10	6	6.6
203	1	3	0	10	7	6.6
204	1	3	0	10	8	6.6
205	1	3	0	10	9	6.6
206	1	3	0	10	10	6.6
207	1	3	0	10	11	6.6
208	1	3	0	10	12	6.6
209	1	2	0	10	13	6.6
210	1	2	0	11	3	6.6
211	1	2	0	11	4	6.6
212	1	3	0	11	5	6.6
213	1	3	0	11	6	6.6
214	1	3	0	11	7	6.6
215	1	3	0	11	8	6.6
216	1	3	0	11	9	6.6
217	1	3	0	11	10	6.6
218	1	3	0	11	11	6.6
219	1	2	0	11	12	6.6
220	1	2	0	11	13	6.6
221	1	2	0	12	3	6.6
222	1	2	0	12	4	6.6
223	1	2	0	12	5	6.6
224	1	3	0	12	6	6.6
225	1	3	0	12	7	6.6
226	1	3	0	12	8	6.6
227	1	3	0	12	9	6.6
228	1	3	0	12	10	6.6
229	1	2	0	12	11	6.6
230	1	2	0	12	12	6.6
231	1	2	0	12	13	6.6
232	1	2	0	13	3	6.6
233	1	2	0	13	4	6.6
234	1	2	0	13	5	6.6
235	1	2	0	13	6	6.6
236	1	2	0	13	7	6.6
237	1	2	0	13	8	6.6
238	1	2	0	13	9	6.6
239	1	2	0	13	10	6.6
240	1	2	0	13	11	6.6
241	1	2	0	13	12	6.6
242	1	2	0	13	13	6.6
243	1	2	0	3	3	7.6
244	1	2	0	3	4	7.6
245	1	2	0	3	5	7.6
246	1	2	0	3	6	7.6
247	1	2	0	3	7	7.6
248	1	2	0	3	8	7.6
249	1	2	0	3	9	7.6
250	1	2	0	3	10	7.6
251	1	2	0	3	11	7.6
252	1	2	0	3	12	7.6
253	1	2	0	3	13	7.6
254	1	2	0	4	3	7.6
255	1	2	0	4	4	7.6
256	1	3	0	4	5	7.6
257	1	3	0	4	6	7.6
258	1	3	0	4	7	7.6
259	1	3	0	4	8	7.6
260	1	3	0	4	9	7.6
261	1	3	0	4	10	7.6
262	1	3	0	4	11	7.6
263	1	2	0	4	12	7.6
264	1	2	0	4	13	7.6
265	1	2	0	5	3	7.6
266	1	3	0	5	4	7.6
267	1	3	0	5	5	7.6
268	1	3	0	5	6	7.6
269	1	3	0	5	7	7.6
270	1	3	0	5	8	7.6
271	1	3	0	5	9	7.6
272	1	3	0	5	10	7.6
273	1	3	0	5	11	7.6
274	1	3	0	5	12	7.6
275	1	2	0	5	13	7.6
276	1	2	0	6	3	7.6
277	1	3	0	6	4	7.6
278	1	3	0	6	5	7.6
279	1	3	0	6	6	7.6
280	1	3	0	6	7	7.6
281	1	3	0	6	8	7.6
282	1	3	0	6	9	7.6
283	1	3	0	6	10	7.6
284	1	3	0	6	11	7.6
285	1	3	0	6	12	7.6
286	1	2	0	6	13	7.6
287	1	2	0	7	3	7.6
288	1	3	0	7	4	7.6
289	1	3	0	7	5	7.6
290	1	3	0	7	6	7.6
291	1	3	0	7	7	7.6
292	1	3	0	7	8	7.6
293	1	3	0	7	9	7.6
294	1	3	0	7	10	7.6
295	1	3	0	7	11	7.6
296	1	3	0	7	12	7.6
297	1	2	0	7	13	7.6
298	1	2	0	8	3	7.6
299	1	3	0	8	4	7.6
300	1	3	0	8	5	7.6
301	1	3	0	8	6	7.6
302	1	3	0	8	7	7.6
303	1	3	0	8	8	7.6
304	1	3	0	8	9	7.6
305	1	3	0	8	10	7.6
306	1	3	0	8	11	7.6
307	1	3	0	8	12	7.6
308	1	2	0	8	13	7.6
309	1	2	0	9	3	7.6
310	1	3	0	9	4	7.6
311	1	3	0	9	5	7.6
312	1	3	0	9	6	7.6
313	1	3	0	9	7	7.6
314	1	3	0	9	8	7.6
315	1	3	0	9	9	7.6
316	1	3	0	9	10	7.6
317	1	3	0	9	11	7.6
318	1	3	0	9	12	7.6
319	1	2	0	9	13	7.6
320	1	2	0	10	3	7.6
321	1	3	0	10	4	7.6
322	1	3	0	10	5	7.6
323	1	3	0	10	6	7.6
324	1	3	0	10	7	7.6
325	1	3	0	10	8	7.6
326	1	3	0	10	9	7.6
327	1	3	0	10	10	7.6
328	1	3	0	10	11	7.6
329	1	3	0	10	12	7.6
330	1	2	0	10	13	7.6
331	1	2	0	11	3	7.6
332	1	3	0	11	4	7.6
333	1	3	0	11	5	7.6
334	1	3	0	11	6	7.6
335	1	3	0	11	7	7.6
336	1	3	0	11	8	7.6
337	1	3	0	11	9	7.6
338	1	3	0	11	10	7.6
339	1	3	0	11	11	7.6
340	1	3	0	11	12	7.6
341	1	2	0	11	13	7.6
342	1	2	0	12	3	7.6
343	1	2	0	12	4	7.6
344	1	3	0	12	5	7.6
345	1	3	0	12	6	7.6
346	1	3	0	12	7	7.6
347	1	3	0	12	8	7.6
348	1	3	0	12	9	7.6
349	1	3	0	12	10	7.6
350	1	3	0	12	11	7.6
351	1	2	0	12	12	7.6
352	1	2	0	12	13	7.6
353	1	2	0	13	3	7.6
354	1	2	0	13	4	7.6
355	1	2	0	13	5	7.6
356	1	2	0	13	6	7.6
357	1	2	0	13	7	7.6
358	1	2	0	13	8	7.6
359	1	2	0	13	9	7.6
360	1	2	0	13	10	7.6
361	1	2	0	13	11	7.6
362	1	2	0	13	12	7.6
363	1	2	0	13	13	7.6
364	1	2	0	3	3	8.6
365	1	2	0	3	4	8.6
366	1	2	0	3	5	8.6
367	1	2	0	3	6	8.6
368	1	2	0	3	7	8.6
369	1	2	0	3	8	8.6
370	1	2	0	3	9	8.6
371	1	2	0	3	10	8.6
372	1	2	0	3	11	8.6
373	1	2	0	3	12	8.6
374	1	2	0	3	13	8.6
375	1	2	0	4	3	8.6
376	1	3	0	4	4	8.6
377	1	3	0	4	5	8.6
378	1	3	0	4	6	8.6
379	1	3	0	4	7	8.6
380	1	3	0	4	8	8.6
381	1	3	0	4	9	8.6
382	1	3	0	4	10	8.6
383	1	3	0	4	11	8.6
384	1	3	0	4	12	8.6
385	1	2	0	4	13	8.6
386	1	2	0	5	3	8.6
387	1	3	0	5	4	8.6
388	1	3	0	5	5	8.6
389	1	3	0	5	6	8.6
390	1	3	0	5	7	8.6
391	1	3	0	5	8	8.6
392	1	3	0	5	9	8.6
393	1	3	0	5	10	8.6
394	1	3	0	5	11	8.6
395	1	3	0	5	12	8.6
396	1	2	0	5	13	8.6
397	1	2	0	6	3	8.6
398	1	3	0	6	4	8.6
399	1	3	0	6	5	8.6
400	1	3	0	6	6	8.6
401	1	3	0	6	7	8.6
402	1	3	0	6	8	8.6
403	1	3	0	6	9	8.6
404	1	3	0	6	10	8.6
405	1	3	0	6	11	8.6
406	1	3	0	6	12	8.6
407	1	2	0	6	13	8.6
408	1	2	0	7	3	8.6
409	1	3	0	7	4	8.6
410	1	3	0	7	5	8.6
411	1	3	0	7	6	8.6
412	1	3	0	7	7	8.6
413	1	3	0	7	8	8.6
414	1	3	0	7	9	8.6
415	1	3	0	7	10	8.6
416	1	3	0	7	11	8.6
417	1	3	0	7	12	8.6
418	1	2	0	7	13	8.6
419	1	2	0	8	3	8.6
420	1	3	0	8	4	8.6
421	1	3	0	8	5	8.6
422	1	3	0	8	6	8.6
423	1	3	0	8	7	8.6
424	1	3	0	8	8	8.6
425	1	3	0	8	9	8.6
426	1	3	0	8	10	8.6
427	1	3	0	8	11	8.6
428	1	3	0	8	12	8.6
429	1	2	0	8	13	8.6
430	1	2	0	9	3	8.6
431	1	3	0	9	4	8.6
432	1	3	0	9	5	8.6
433	1	3	0	9	6	8.6
434	1	3	0	9	7	8.6
435	1	3	0	9	8	8.6
436	1	3	0	9	9	8.6
437	1	3	0	9	10	8.6
438	1	3	0	9	11	8.6
439	1	3	0	9	12	8.6
440	1	2	0	9	13	8.6
441	1	2	0	10	3	8.6
442	1	3	0	10	4	8.6
443	1	3	0	10	5	8.6
444	1	3	0	10	6	8.6
445	1	3	0	10	7	8.6
446	1	3	0	10	8	8.6
447	1	3	0	10	9	8.6
448	1	3	0	10	10	8.6
449	1	3	0	10	11	8.6
450	1	3	0	10	12	8.6
451	1	2	0	10	13	8.6
452	1	2	0	11	3	8.6
453	1	3	0	11	4	8.6
454	1	3	0	11	5	8.6
455	1	3	0	11	6	8.6
456	1	3	0	11	7	8.6
457	1	3	0	11	8	8.6
458	1	3	0	11	9	8.6
459	1	3	0	11	10	8.6
460	1	3	0	11	11	8.6
461	1	3	0	11	12	8.6
462	1	2	0	11	13	8.6
463	1	2	0	12	3	8.6
464	1	3	0	12	4	8.6
465	1	3	0	12	5	8.6
466	1	3	0	12	6	8.6
467	1	3	0	12	7	8.6
468	1	3	0	12	8	8.6
469	1	3	0	12	9	8.6
470	1	3	0	12	10	8.6
471	1	3	0	12	11	8.6
472	1	3	0	12	12	8.6
473	1	2	0	12	13	8.6
474	1	2	0	13	3	8.6
475	1	2	0	13	4	8.6
476	1	2	0	13	5	8.6
477	1	2	0	13	6	8.6
478	1	2	0	13	7	8.6
479	1	2	0	13	8	8.6
480	1	2	0	13	9	8.6
481	1	2	0	13	10	8.6
482	1	2	0	13	11	8.6
483	1	2	0	13	12	8.6
484	1	2	0	13	13	8.6
485	1	2	0	3	3	9.6
486	1	2	0	3	4	9.6
487	1	2	0	3	5	9.6
488	1	2	0	3	6	9.6
489	1	2	0	3	7	9.6
490	1	2	0	3	8	9.6
491	1	2	0	3	9	9.6
492	1	2	0	3	10	9.6
493	1	2	0	3	11	9.6
494	1	2	0	3	12	9.6
495	1	2	0	3	13	9.6
496	1	2	0	4	3	9.6
497	1	3	0	4	4	9.6
498	1	3	0	4	5	9.6
499	1	3	0	4	6	9.6
500	1	3	0	4	7	9.6
501	1	3	0	4	8	9.6
502	1	3	0	4	9	9.6
503	1	3	0	4	10	9.6
504	1	3	0	4	11	9.6
505	1	3	0	4	12	9.6
506	1	2	0	4	13	9.6
507	1	2	0	5	3	9.6
508	1	3	0	5	4	9.6
509	1	3	0	5	5	9.6
510	1	3	0	5	6	9.6
511	1	3	0	5	7	9.6
512	1	3	0	5	8	9.6
513	1	3	0	5	9	9.6
514	1	3	0	5	10	9.6
515	1	3	0	5	11	9.6
516	1	3	0	5	12	9.6
517	1	2	0	5	13	9.6
518	1	2	0	6	3	9.6
519	1	3	0	6	4	9.6
520	1	3	0	6	5	9.6
521	1	3	0	6	6	9.6
522	1	3	0	6	7	9.6
523	1	3	0	6	8	9.6
524	1	3	0	6	9	9.6
525	1	3	0	6	10	9.6
526	1	3	0	6	11	9.6
527	1	3	0	6	12	9.6
528	1	2	0	6	13	9.6
529	1	2	0	7	3	9.6
530	1	3	0	7	4	9.6
531	1	3	0	7	5	9.6
532	1	3	0	7	6	9.6
533	1	3	0	7	7	9.6
534	1	3	0	7	8	9.6
535	1	3	0	7	9	9.6
536	1	3	0	7	10	9.6
537	1	3	0	7	11	9.6
538	1	3	0	7	12	9.6
539	1	2	0	7	13	9.6
540	1	2	0	8	3	9.6
541	1	3	0	8	4	9.6
542	1	3	0	8	5	9.6
543	1	3	0	8	6	9.6
544	1	3	0	8	7	9.6
545	1	3	0	8	8	9.6
546	1	3	0	8	9	9.6
547	1	3	0	8	10	9.6
548	1	3	0	8	11	9.6
549	1	3	0	8	12	9.6
550	1	2	0	8	13	9.6
551	1	2	0	9	3	9.6
552	1	3	0	9	4	9.6
553	1	3	0	9	5	9.6
554	1	3	0	9	6	9.6
555	1	3	0	9	7	9.6
556	1	3	0	9	8	9.6
557	1	3	0	9	9	9.6
558	1	3	0	9	10	9.6
559	1	3	0	9	11	9.6
560	1	3	0	9	12	9.6
561	1	2	0	9	13	9.6
562	1	2	0	10	3	9.6
563	1	3	0	10	4	9.6
564	1	3	0	10	5	9.6
565	1	3	0	10	6	9.6
566	1	3	0	10	7	9.6
567	1	3	0	10	8	9.6
568	1	3	0	10	9	9.6
569	1	3	0	10	10	9.6
570	1	3	0	10	11	9.6
571	1	3	0	10	12	9.6
572	1	2	0	10	13	9.6
573	1	2	0	11	3	9.6
574	1	3	0	11	4	9.6
575	1	3	0	11	5	9.6
576	1	3	0	11	6	9.6
577	1	3	0	11	7	9.6
578	1	3	0	11	8	9.6
579	1	3	0	11	9	9.6
580	1	3	0	11	10	9.6
581	1	3	0	11	11	9.6
582	1	3	0	11	12	9.6
583	1	2	0	11	13	9.6
584	1	2	0	12	3	9.6
585	1	3	0	12	4	9.6
586	1	3	0	12	5	9.6
587	1	3	0	12	6	9.6
588	1	3	0	12	7	9.6
589	1	3	0	12	8	9.6
590	1	3	0	12	9	9.6
591	1	3	0	12	10	9.6
592	1	3	0	12	11	9.6
593	1	3	0	12	12	9.6
594	1	2	0	12	13	9.6
595	1	2	0	13	3	9.6
596	1	2	0	13	4	9.6
597	1	2	0	13	5	9.6
598	1	2	0	13	6	9.6
599	1	2	0	13	7	9.6
600	1	2	0	13	8	9.6
601	1	2	0	13	9	9.6
602	1	2	0	13	10	9.6
603	1	2	0	13	11	9.6
604	1	2	0	13	12	9.6
605	1	2	0	13	13	9.6
606	1	2	0	3	3	10.6
607	1	2	0	3	4	10.6
608	1	2	0	3	5	10.6
609	1	2	0	3	6	10.6
610	1	2	0	3	7	10.6
611	1	2	0	3	8	10.6
612	1	2	0	3	9	10.6
613	1	2	0	3	10	10.6
614	1	2	0	3	11	10.6
615	1	2	0	3	12	10.6
616	1	2	0	3	13	10.6
617	1	2	0	4	3	10.6
618	1	3	0	4	4	10.6
619	1	3	0	4	5	10.6
620	1	3	0	4	6	10.6
621	1	3	0	4	7	10.6
622	1	3	0	4	8	10.6
623	1	3	0	4	9	10.6
624	1	3	0	4	10	10.6
625	1	3	0	4	11	10.6
626	1	3	0	4	12	10.6
627	1	2	0	4	13	10.6
628	1	2	0	5	3	10.6
629	1	3	0	5	4	10.6
630	1	3	0	5	5	10.6
631	1	3	0	5	6	10.6
632	1	3	0	5	7	10.6
633	1	3	0	5	8	10.6
634	1	3	0	5	9	10.6
635	1	3	0	5	10	10.6
636	1	3	0	5	11	10.6
637	1	3	0	5	12	10.6
638	1	2	0	5	13	10.6
639	1	2	0	6	3	10.6
640	1	3	0	6	4	10.6
641	1	3	0	6	5	10.6
642	1	3	0	6	6	10.6
643	1	3	0	6	7	10.6
644	1	3	0	6	8	10.6
645	1	3	0	6	9	10.6
646	1	3	0	6	10	10.6
647	1	3	0	6	11	10.6
648	1	3	0	6	12	10.6
649	1	2	0	6	13	10.6
650	1	2	0	7	3	10.6
651	1	3	0	7	4	10.6
652	1	3	0	7	5	10.6
653	1	3	0	7	6	10.6
654	1	3	0	7	7	10.6
655	1	3	0	7	8	10.6
656	1	3	0	7	9	10.6
657	1	3	0	7	10	10.6
658	1	3	0	7	11	10.6
659	1	3	0	7	12	10.6
660	1	2	0	7	13	10.6
661	1	2	0	8	3	10.6
662	1	3	0	8	4	10.6
663	1	3	0	8	5	10.6
664	1	3	0	8	6	10.6
665	1	3	0	8	7	10.6
666	1	3	0	8	8	10.6
667	1	3	0	8	9	10.6
668	1	3	0	8	10	10.6
669	1	3	0	8	11	10.6
670	1	3	0	8	12	10.6
671	1	2	0	8	13	10.6
672	1	2	0	9	3	10.6
673	1	3	0	9	4	10.6
674	1	3	0	9	5	10.6
675	1	3	0	9	6	10.6
676	1	3	0	9	7	10.6
677	1	3	0	9	8	10.6
678	1	3	0	9	9	10.6
679	1	3	0	9	10	10.6
680	1	3	0	9	11	10.6
681	1	3	0	9	12	10.6
682	1	2	0	9	13	10.6
683	1	2	0	10	3	10.6
684	1	3	0	10	4	10.6
685	1	3	0	10	5	10.6
686	1	3	0	10	6	10.6
687	1	3	0	10	7	10.6
688	1	3	0	10	8	10.6
689	1	3	0	10	9	10.6
690	1	3	0	10	10	10.6
691	1	3	0	10	11	10.6
692	1	3	0	10	12	10.6
693	1	2	0	10	13	10.6
694	1	2	0	11	3	10.6
695	1	3	0	11	4	10.6
696	1	3	0	11	5	10.6
697	1	3	0	11	6	10.6
698	1	3	0	11	7	10.6
699	1	3	0	11	8	10.6
700	1	3	0	11	9	10.6
701	1	3	0	11	10	10.6
702	1	3	0	11	11	10.6
703	1	3	0	11	12	10.6
704	1	2	0	11	13	10.6
705	1	2	0	12	3	10.6
706	1	3	0	12	4	10.6
707	1	3	0	12	5	10.6
708	1	3	0	12	6	10.6
709	1	3	0	12	7	10.6
710	1	3	0	12	8	10.6
711	1	3	0	12	9	10.6
712	1	3	0	12	10	10.6
713	1	3	0	12	11	10.6
714	1	3	0	12	12	10.6
715	1	2	0	12	13	10.6
716	1	2	0	13	3	10.6
717	1	2	0	13	4	10.6
718	1	2	0	13	5	10.6
719	1	2	0	13	6	10.6
720	1	2	0	13	7	10.6
721	1	2	0	13	8	10.6
722	1	2	0	13	9	10.6
723	1	2	0	13	10	10.6
724	1	2	0	13	11	10.6
725	1	2	0	13	12	10.6
726	1	2	0	13	13	10.6
727	1	2	0	3	3	11.6
728	1	2	0	3	4	11.6
729	1	2	0	3	5	11.6
730	1	2	0	3	6	11.6
731	1	2	0	3	7	11.6
732	1	2	0	3	8	11.6
733	1	2	0	3	9	11.6
734	1	2	0	3	10	11.6
735	1	2	0	3	11	11.6
736	1	2	0	3	12	11.6
737	1	2	0	3	13	11.6
738	1	2	0	4	3	11.6
739	1	3	0	4	4	11.6
740	1	3	0	4	5	11.6
741	1	3	0	4	6	11.6
742	1	3	0	4	7	11.6
743	1	3	0	4	8	11.6
744	1	3	0	4	9	11.6
745	1	3	0	4	10	11.6
746	1	3	0	4	11	11.6
747	1	3	0	4	12	11.6
748	1	2	0	4	13	11.6
749	1	2	0	5	3	11.6
750	1	3	0	5	4	11.6
751	1	3	0	5	5	11.6
752	1	3	0	5	6	11.6
753	1	3	0	5	7	11.6
754	1	3	0	5	8	11.6
755	1	3	0	5	9	11.6
756	1	3	0	5	10	11.6
757	1	3	0	5	11	11.6
758	1	3	0	5	12	11.6
759	1	2	0	5	13	11.6
760	1	2	0	6	3	11.6
761	1	3	0	6	4	11.6
762	1	3	0	6	5	11.6
763	1	3	0	6	6	11.6
764	1	3	0	6	7	11.6
765	1	3	0	6	8	11.6
766	1	3	0	6	9	11.6
767	1	3	0	6	10	11.6
768	1	3	0	6	11	11.6
769	1	3	0	6	12	11.6
770	1	2	0	6	13	11.6
771	1	2	0	7	3	11.6
772	1	3	0	7	4	11.6
773	1	3	0	7	5	11.6
774	1	3	0	7	6	11.6
775	1	3	0	7	7	11.6
776	1	3	0	7	8	11.6
777	1	3	0	7	9	11.6
778	1	3	0	7	10	11.6
779	1	3	0	7	11	11.6
780	1	3	0	7	12	11.6
781	1	2	0	7	13	11.6
782	1	2	0	8	3	11.6
783	1	3	0	8	4	11.6
784	1	3	0	8	5	11.6
785	1	3	0	8	6	11.6
786	1	3	0	8	7	11.6
787	1	3	0	8	8	11.6
788	1	3	0	8	9	11.6
789	1	3	0	8	10	11.6
790	1	3	0	8	11	11.6
791	1	3	0	8	12	11.6
792	1	2	0	8	13	11.6
793	1	2	0	9	3	11.6
794	1	3	0	9	4	11.6
795	1	3	0	9	5	11.6
796	1	3	0	9	6	11.6
797	1	3	0	9	7	11.6
798	1	3	0	9	8	11.6
799	1	3	0	9	9	11.6
800	1	3	0	9	10	11.6
801	1	3	0	9	11	11.6
802	1	3	0	9	12	11.6
803	1	2	0	9	13	11.6
804	1	2	0	10	3	11.6
805	1	3	0	10	4	11.6
806	1	3	0	10	5	11.6
807	1	3	0	10	6	11.6
808	1	3	0	10	7	11.6
809	1	3	0	10	8	11.6
810	1	3	0	10	9	11.6
811	1	3	0	10	10	11.6
812	1	3	0	10	11	11.6
813	1	3	0	10	12	11.6
814	1	2	0	10	13	11.6
815	1	2	0	11	3	11.6
816	1	3	0	11	4	11.6
817	1	3	0	11	5	11.6
818	1	3	0	11	6	11.6
819	1	3	0	11	7	11.6
820	1	3	0	11	8	11.6
821	1	3	0	11	9	11.6
822	1	3	0	11	10	11.6
823	1	3	0	11	11	11.6
824	1	3	0	11	12	11.6
825	1	2	0	11	13	11.6
826	1	2	0	12	3	11.6
827	1	3	0	12	4	11.6
828	1	3	0	12	5	11.6
829	1	3	0	12	6	11.6
830	1	3	0	12	7	11.6
831	1	3	0	12	8	11.6
832	1	3	0	12	9	11.6
833	1	3	0	12	10	11.6
834	1	3	0	12	11	11.6
835	1	3	0	12	12	11.6
836	1	2	0	12	13	11.6
837	1	2	0	13	3	11.6
838	1	2	0	13	4	11.6
839	1	2	0	13	5	11.6
840	1	2	0	13	6	11.6
841	1	2	0	13	7	11.6
842	1	2	0	13	8	11.6
843	1	2	0	13	9	11.6
844	1	2	0	13	10	11.6
845	1	2	0	13	11	11.6
846	1	2	0	13	12	11.6
847	1	2	0	13	13	11.6
848	1	2	0	3	3	12.6
849	1	2	0	3	4	12.6
850	1	2	0	3	5	12.6
851	1	2	0	3	6	12.6
852	1	2	0	3	7	12.6
853	1	2	0	3	8	12.6
854	1	2	0	3	9	12.6
855	1	2	0	3	10	12.6
856	1	2	0	3	11	12.6
857	1	2	0	3	12	12.6
858	1	2	0	3	13	12.6
859	1	2	0	4	3	12.6
860	1	3	0	4	4	12.6
861	1	3	0	4	5	12.6
862	1	3	0	4	6	12.6
863	1	3	0	4	7	12.6
864	1	3	0	4	8	12.6
865	1	3	0	4	9	12.6
866	1	3	0	4	10	12.6
867	1	3	0	4	11	12.6
868	1	3	0	4	12	12.6
869	1	2	0	4	13	12.6
870	1	2	0	5	3	12.6
871	1	3	0	5	4	12.6
872	1	3	0	5	5	12.6
873	1	3	0	5	6	12.6
874	1	3	0	5	7	12.6
875	1	3	0	5	8	12.6
876	1	3	0	5	9	12.6
877	1	3	0	5	10	12.6
878	1	3	0	5	11	12.6
879	1	3	0	5	12	12.6
880	1	2	0	5	13	12.6
881	1	2	0	6	3	12.6
882	1	3	0	6	4	12.6
883	1	3	0	6	5	12.6
884	1	3	0	6	6	12.6
885	1	3	0	6	7	12.6
886	1	3	0	6	8	12.6
887	1	3	0	6	9	12.6
888	1	3	0	6	10	12.6
889	1	3	0	6	11	12.6
890	1	3	0	6	12	12.6
891	1	2	0	6	13	12.6
892	1	2	0	7	3	12.6
893	1	3	0	7	4	12.6
894	1	3	0	7	5	12.6
895	1	3	0	7	6	12.6
896	1	3	0	7	7	12.6
897	1	3	0	7	8	12.6
898	1	3	0	7	9	12.6
899	1	3	0	7	10	12.6
900	1	3	0	7	11	12.6
901	1	3	0	7	12	12.6
902	1	2	0	7	13	12.6
903	1	2	0	8	3	12.6
904	1	3	0	8	4	12.6
905	1	3	0	8	5	12.6
906	1	3	0	8	6	12.6
907	1	3	0	8	7	12.6
908	1	3	0	8	8	12.6
909	1	3	0	8	9	12.6
910	1	3	0	8	10	12.6
911	1	3	0	8	11	12.6
912	1	3	0	8	12	12.6
913	1	2	0	8	13	12.6
914	1	2	0	9	3	12.6
915	1	3	0	9	4	12.6
916	1	3	0	9	5	12.6
917	1	3	0	9	6	12.6
918	1	3	0	9	7	12.6
919	1	3	0	9	8	12.6
920	1	3	0	9	9	12.6
921	1	3	0	9	10	12.6
922	1	3	0	9	11	12.6
923	1	3	0	9	12	12.6
924	1	2	0	9	13	12.6
925	1	2	0	10	3	12.6
926	1	3	0	10	4	12.6
927	1	3	0	10	5	12.6
928	1	3	0	10	6	12.6
929	1	3	0	10	7	12.6
930	1	3	0	10	8	12.6
931	1	3	0	10	9	12.6
932	1	3	0	10	10	12.6
933	1	3	0	10	11	12.6
934	1	3	0	10	12	12.6
935	1	2	0	10	13	12.6
936	1	2	0	11	3	12.6
937	1	3	0	11	4	12.6
938	1	3	0	11	5	12.6
939	1	3	0	11	6	12.6
940	1	3	0	11	7	12.6
941	1	3	0	11	8	12.6
942	1	3	0	11	9	12.6
943	1	3	0	11	10	12.6
944	1	3	0	11	11	12.6
945	1	3	0	11	12	12.6
946	1	2	0	11	13	12.6
947	1	2	0	12	3	12.6
948	1	3	0	12	4	12.6
949	1	3	0	12	5	12.6
950	1	3	0	12	6	12.6
951	1	3	0	12	7	12.6
952	1	3	0	12	8	12.6
953	1	3	0	12	9	12.6
954	1	3	0	12	10	12.6
955	1	3	0	12	11	12.6
956	1	3	0	12	12	12.6
957	1	2	0	12	13	12.6
958	1	2	0	13	3	12.6
959	1	2	0	13	4	12.6
960	1	2	0	13	5	12.6
961	1	2	0	13	6	12.6
962	1	2	0	13	7	12.6
963	1	2	0	13	8	12.6
964	1	2	0	13	9	12.6
965	1	2	0	13	10	12.6
966	1	2	0	13	11	12.6
967	1	2	0	13	12	12.6
968	1	2	0	13	13	12.6
969	1	2	0	3	3	13.6
970	1	2	0	3	4	13.6
971	1	2	0	3	5	13.6
972	1	2	0	3	6	13.6
973	1	2	0	3	7	13.6
974	1	2	0	3	8	13.6
975	1	2	0	3	9	13.6
976	1	2	0	3	10	13.6
977	1	2	0	3	11	13.6
978	1	2	0	3	12	13.6
979	1	2	0	3	13	13.6
980	1	2	0	4	3	13.6
981	1	2	0	4	4	13.6
982	1	3	0	4	5	13.6
983	1	3	0	4	6	13.6
984	1	3	0	4	7	13.6
985	1	3	0	4	8	13.6
986	1	3	0	4	9	13.6
987	1	3	0	4	10	13.6
988	1	3	0	4	11	13.6
989	1	2	0	4	12	13.6
990	1	2	0	4	13	13.6
991	1	2	0	5	3	13.6
992	1	3	0	5	4	13.6
993	1	3	0	5	5	13.6
994	1	3	0	5	6	13.6
995	1	3	0	5	7	13.6
996	1	3	0	5	8	13.6
997	1	3	0	5	9	13.6
998	1	3	0	5	10	13.6
999	1	3	0	5	11	13.6
1000	1	3	0	5	12	13.6
1001	1	2	0	5	13	13.6
1002	1	2	0	6	3	13.6
1003	1	3	0	6	4	13.6
1004	1	3	0	6	5	13.6
1005	1	3	0	6	6	13.6
1006	1	3	0	6	7	13.6
1007	1	3	0	6	8	13.6
1008	1	3	0	6	9	13.6
1009	1	3	0	6	10	13.6
1010	1	3	0	6	11	13.6
1011	1	3	0	6	12	13.6
1012	1	2	0	6	13	13.6
1013	1	2	0	7	3	13.6
1014	1	3	0	7	4	13.6
1015	1	3	0	7	5	13.6
1016	1	3	0	7	6	13.6
1017	1	3	0	7	7	13.6
1018	1	3	0	7	8	13.6
1019	1	3	0	7	9	13.6
1020	1	3	0	7	10	13.6
1021	1	3	0	7	11	13.6
1022	1	3	0	7	12	13.6
1023	1	2	0	7	13	13.6
1024	1	2	0	8	3	13.6
1025	1	3	0	8	4	13.6
1026	1	3	0	8	5	13.6
1027	1	3	0	8	6	13.6
1028	1	3	0	8	7	13.6
1029	1	3	0	8	8	13.6
1030	1	3	0	8	9	13.6
1031	1	3	0	8	10	13.6
1032	1	3	0	8	11	13.6
1033	1	3	0	8	12	13.6
1034	1	2	0	8	13	13.6
1035	1	2	0	9	3	13.6
1036	1	3	0	9	4	13.6
1037	1	3	0	9	5	13.6
1038	1	3	0	9	6	13.6
1039	1	3	0	9	7	13.6
1040	1	3	0	9	8	13.6
1041	1	3	0	9	9	13.6
1042	1	3	0	9	10	13.6
1043	1	3	0	9	11	13.6
1044	1	3	0	9	12	13.6
1045	1	2	0	9	13	13.6
1046	1	2	0	10	3	13.6
1047	1	3	0	10	4	13.6
1048	1	3	0	10	5	13.6
1049	1	3	0	10	6	13.6
1050	1	3	0	10	7	13.6
1051	1	3	0	10	8	13.6
1052	1	3	0	10	9	13.6
1053	1	3	0	10	10	13.6
1054	1	3	0	10	11	13.6
1055	1	3	0	10	12	13.6
1056	1	2	0	10	13	13.6
1057	1	2	0	11	3	13.6
1058	1	3	0	11	4	13.6
1059	1	3	0	11	5	13.6
1060	1	3	0	11	6	13.6
1061	1	3	0	11	7	13.6
1062	1	3	0	11	8	13.6
1063	1	3	0	11	9	13.6
1064	1	3	0	11	10	13.6
1065	1	3	0	11	11	13.6
1066	1	3	0	11	12	13.6
1067	1	2	0	11	13	13.6
1068	1	2	0	12	3	13.6
1069	1	2	0	12	4	13.6
1070	1	3	0	12	5	13.6
1071	1	3	0	12	6	13.6
1072	1	3	0	12	7	13.6
1073	1	3	0	12	8	13.6
1074	1	3	0	12	9	13.6
1075	1	3	0	12	10	13.6
1076	1	3	0	12	11	13.6
1077	1	2	0	12	12	13.6
1078	1	2	0	12	13	13.6
1079	1	2	0	13	3	13.6
1080	1	2	0	13	4	13.6
1081	1	2	0	13	5	13.6
1082	1	2	0	13	6	13.6
1083	1	2	0	13	7	13.6
1084	1	2	0	13	8	13.6
1085	1	2	0	13	9	13.6
1086	1	2	0	13	10	13.6
1087	1	2	0	13	11	13.6
1088	1	2	0	13	12	13.6
1089	1	2	0	13	13	13.6
1090	1	2	0	3	3	14.6
1091	1	2	0	3	4	14.6
1092	1	2	0	3	5	14.6
1093	1	2	0	3	6	14.6
1094	1	2	0	3	7	14.6
1095	1	2	0	3	8	14.6
1096	1	2	0	3	9	14.6
1097	1	2	0	3	10	14.6
1098	1	2	0	3	11	14.6
1099	1	2	0	3	12	14.6
1100	1	2	0	3	13	14.6
1101	1	2	0	4	3	14.6
1102	1	2	0	4	4	14.6
1103	1	2	0	4	5	14.6
1104	1	3	0	4	6	14.6
1105	1	3	0	4	7	14.6
1106	1	3	0	4	8	14.6
1107	1	3	0	4	9	14.6
1108	1	3	0	4	10	14.6
1109	1	2	0	4	11	14.6
1110	1	2	0	4	12	14.6
1111	1	2	0	4	13	14.6
1112	1	2	0	5	3	14.6
1113	1	2	0	5	4	14.6
1114	1	3	0	5	5	14.6
1115	1	3	0	5	6	14.6
1116	1	3	0	5	7	14.6
1117	1	3	0	5	8	14.6
1118	1	3	0	5	9	14.6
1119	1	3	0	5	10	14.6
1120	1	3	0	5	11	14.6
1121	1	2	0	5	12	14.6
1122	1	2	0	5	13	14.6
1123	1	2	0	6	3	14.6
1124	1	3	0	6	4	14.6
1125	1	3	0	6	5	14.6
1126	1	3	0	6	6	14.6
1127	1	3	0	6	7	14.6
1128	1	3	0	6	8	14.6
1129	1	3	0	6	9	14.6
1130	1	3	0	6	10	14.6
1131	1	3	0	6	11	14.6
1132	1	3	0	6	12	14.6
1133	1	2	0	6	13	14.6
1134	1	2	0	7	3	14.6
1135	1	3	0	7	4	14.6
1136	1	3	0	7	5	14.6
1137	1	3	0	7	6	14.6
1138	1	3	0	7	7	14.6
1139	1	3	0	7	8	14.6
1140	1	3	0	7	9	14.6
1141	1	3	0	7	10	14.6
1142	1	3	0	7	11	14.6
1143	1	3	0	7	12	14.6
1144	1	2	0	7	13	14.6
1145	1	2	0	8	3	14.6
1146	1	3	0	8	4	14.6
1147	1	3	0	8	5	14.6
1148	1	3	0	8	6	14.6
1149	1	3	0	8	7	14.6
1150	1	3	0	8	8	14.6
1151	1	3	0	8	9	14.6
1152	1	3	0	8	10	14.6
1153	1	3	0	8	11	14.6
1154	1	3	0	8	12	14.6
1155	1	2	0	8	13	14.6
1156	1	2	0	9	3	14.6
1157	1	3	0	9	4	14.6
1158	1	3	0	9	5	14.6
1159	1	3	0	9	6	14.6
1160	1	3	0	9	7	14.6
1161	1	3	0	9	8	14.6
1162	1	3	0	9	9	14.6
1163	1	3	0	9	10	14.6
1164	1	3	0	9	11	14.6
1165	1	3	0	9	12	14.6
1166	1	2	0	9	13	14.6
1167	1	2	0	10	3	14.6
1168	1	3	0	10	4	14.6
1169	1	3	0	10	5	14.6
1170	1	3	0	10	6	14.6
1171	1	3	0	10	7	14.6
1172	1	3	0	10	8	14.6
1173	1	3	0	10	9	14.6
1174	1	3	0	10	10	14.6
1175	1	3	0	10	11	14.6
1176	1	3	0	10	12	14.6
1177	1	2	0	10	13	14.6
1178	1	2	0	11	3	14.6
1179	1	2	0	11	4	14.6
1180	1	3	0	11	5	14.6
1181	1	3	0	11	6	14.6
1182	1	3	0	11	7	14.6
1183	1	3	0	11	8	14.6
1184	1	3	0	11	9	14.6
1185	1	3	0	11	10	14.6
1186	1	3	0	11	11	14.6
1187	1	2	0	11	12	14.6
1188	1	2	0	11	13	14.6
1189	1	2	0	12	3	14.6
1190	1	2	0	12	4	14.6
1191	1	2	0	12	5	14.6
1192	1	3	0	12	6	14.6
1193	1	3	0	12	7	14.6
1194	1	3	0	12	8	14.6
1195	1	3	0	12	9	14.6
1196	1	3	0	12	10	14.6
1197	1	2	0	12	11	14.6
1198	1	2	0	12	12	14.6
1199	1	2	0	12	13	14.6
1200	1	2	0	13	3	14.6
1201	1	2	0	13	4	14.6
1202	1	2	0	13	5	14.6
1203	1	2	0	13	6	14.6
1204	1	2	0	13	7	14.6
1205	1	2	0	13	8	14.6
1206	1	2	0	13	9	14.6
1207	1	2	0	13	10	14.6
1208	1	2	0	13	11	14.6
1209	1	2	0	13	12	14.6
1210	1	2	0	13	13	14.6
1211	1	2	0	3	3	15.6
1212	1	2	0	3	4	15.6
1213	1	2	0	3	5	15.6
1214	1	2	0	3	6	15.6
1215	1	2	0	3	7	15.6
1216	1	2	0	3	8	15.6
1217	1	2	0	3	9	15.6
1218	1	2	0	3	10	15.6
1219	1	2	0	3	11	15.6
1220	1	2	0	3	12	15.6
1221	1	2	0	3	13	15.6
1222	1	2	0	4	3	15.6
1223	1	2	0	4	4	15.6
1224	1	2	0	4	5	15.6
1225	1	2	0	4	6	15.6
1226	1	2	0	4	7	15.6
1227	1	2	0	4	8	15.6
1228	1	2	0	4	9	15.6
1229	1	2	0	4	10	15.6
1230	1	2	0	4	11	15.6
1231	1	2	0	4	12	15.6
1232	1	2	0	4	13	15.6
1233	1	2	0	5	3	15.6
1234	1	2	0	5	4	15.6
1235	1	2	0	5	5	15.6
1236	1	2	0	5	6	15.6
1237	1	2	0	5	7	15.6
1238	1	2	0	5	8	15.6
1239	1	2	0	5	9	15.6
1240	1	2	0	5	10	15.6
1241	1	2	0	5	11	15.6
1242	1	2	0	5	12	15.6
1243	1	2	0	5	13	15.6
1244	1	2	0	6	3	15.6
1245	1	2	0	6	4	15.6
1246	1	2	0	6	5	15.6
1247	1	2	0	6	6	15.6
1248	1	2	0	6	7	15.6
1249	1	2	0	6	8	15.6
1250	1	2	0	6	9	15.6
1251	1	2	0	6	10	15.6
1252	1	2	0	6	11	15.6
1253	1	2	0	6	12	15.6
1254	1	2	0	6	13	15.6
1255	1	2	0	7	3	15.6
1256	1	2	0	7	4	15.6
1257	1	2	0	7	5	15.6
1258	1	2	0	7	6	15.6
1259	1	2	0	7	7	15.6
1260	1	2	0	7	8	15.6
1261	1	2	0	7	9	15.6
1262	1	2	0	7	10	15.6
1263	1	2	0	7	11	15.6
1264	1	2	0	7	12	15.6
1265	1	2	0	7	13	15.6
1266	1	2	0	8	3	15.6
1267	1	2	0	8	4	15.6
1268	1	2	0	8	5	15.6
1269	1	2	0	8	6	15.6
1270	1	2	0	8	7	15.6
1271	1	2	0	8	8	15.6
1272	1	2	0	8	9	15.6
1273	1	2	0	8	10	15.6
1274	1	2	0	8	11	15.6
1275	1	2	0	8	12	15.6
1276	1	2	0	8	13	15.6
1277	1	2	0	9	3	15.6
1278	1	2	0	9	4	15.6
1279	1	2	0	9	5	15.6
1280	1	2	0	9	6	15.6
1281	1	2	0	9	7	15.6
1282	1	2	0	9	8	15.6
1283	1	2	0	9	9	15.6
1284	1	2	0	9	10	15.6
1285	1	2	0	9	11	15.6
1286	1	2	0	9	12	15.6
1287	1	2	0	9	13	15.6
1288	1	2	0	10	3	15.6
1289	1	2	0	10	4	15.6
1290	1	2	0	10	5	15.6
1291	1	2	0	10	6	15.6
1292	1	2	0	10	7	15.6
1293	1	2	0	10	8	15.6
1294	1	2	0	10	9	15.6
1295	1	2	0	10	10	15.6
1296	1	2	0	10	11	15.6
1297	1	2	0	10	12	15.6
1298	1	2	0	10	13	15.6
1299	1	2	0	11	3	15.6
1300	1	2	0	11	4	15.6
1301	1	2	0	11	5	15.6
1302	1	2	0	11	6	15.6
1303	1	2	0	11	7	15.6
1304	1	2	0	11	8	15.6
1305	1	2	0	11	9	15.6
1306	1	2	0	11	10	15.6
1307	1	2	0	11	11	15.6
1308	1	2	0	11	12	15.6
1309	1	2	0	11	13	15.6
1310	1	2	0	12	3	15.6
1311	1	2	0	12	4	15.6
1312	1	2	0	12	5	15.6
1313	1	2	0	12	6	15.6
1314	1	2	0	12	7	15.6
1315	1	2	0	12	8	15.6
1316	1	2	0	12	9	15.6
1317	1	2	0	12	10	15.6
1318	1	2	0	12	11	15.6
1319	1	2	0	12	12	15.6
1320	1	2	0	12	13	15.6
1321	1	2	0	13	3	15.6
1322	1	2	0	13	4	15.6
1323	1	2	0	13	5	15.6
1324	1	2	0	13	6	15.6
1325	1	2	0	13	7	15.6
1326	1	2	0	13	8	15.6
1327	1	2	0	13	9	15.6
1328	1	2	0	13	10	15.6
1329	1	2	0	13	11	15.6
1330	1	2	0	13	12	15.6
1331	1	2	0	13	13	15.6
