LAMMPS (24 Dec 2020)
OMP_NUM_THREADS environment is not set. Defaulting to 1 thread. (src/comm.cpp:94)
  using 1 OpenMP thread(s) per MPI task
#Read the equilibrated lj fluid and add nanocubes

units           lj
atom_style      full
dimension       3
boundary        p p f
pair_style      lj/cut/opt 2.5

variable        sigma           equal 1.0
variable        epsilon         equal 1.0
read_restart	restart.dat.10000000
Reading restart file ...
  restart file = 24 Dec 2020, LAMMPS = 24 Dec 2020
  restoring atom style full from restart
  orthogonal box = (0.0000000 0.0000000 0.0000000) to (80.000000 80.000000 160.00000)
  6 by 4 by 12 MPI processor grid
  restoring pair style lj/cut/opt from restart
  476190 atoms
Finding 1-2 1-3 1-4 neighbors ...
  special bond factors lj:    0        0        0       
  special bond factors coul:  0        0        0       
     0 = max # of 1-2 neighbors
     0 = max # of 1-3 neighbors
     0 = max # of 1-4 neighbors
     1 = max # of special neighbors
  special bonds CPU = 2.511 seconds
  read_restart CPU = 3.015 seconds

group		solvent type 1
366462 atoms in group solvent
group 		hull  type 2
42816 atoms in group hull
group 		dummy type 3
66912 atoms in group dummy

neighbor      0.4 bin
neigh_modify  exclude molecule/intra cubes


pair_modify   shift yes

pair_coeff    1 1 1.0 1.0 #solvent
pair_coeff    2 2 1.0 1.0 1.12 #np
pair_coeff    3 3 0.0 0.0 0.0 #dummy
pair_coeff    2 3 0.0 0.0 0.0 #np dummy
pair_coeff    1 2 ${sol} 1.0  #np solvent
pair_coeff    1 2 0.5 1.0  
pair_coeff    1 3 0.0 0.0 0.0 #dummy solvent


comm_modify   mode multi cutoff/multi 1 2.5 cutoff/multi 2 2.5 cutoff/multi 3 6.95

reset_timestep 	0

balance 	1.05 shift z 10 1.05
Balancing ...
Unused restart file global fix info:
  fix style: STORE, fix ID: msd_COMPUTE_STORE
Unused restart file peratom fix info:
  fix style: STORE, fix ID: bin1_COMPUTE_STORE
Neighbor list info ...
  update every 1 steps, delay 10 steps, check yes
  max neighbors/atom: 2000, page size: 100000
  master list distance cutoff = 2.9
  ghost atom cutoff = 6.95
  binsize = 1.45, bins = 56 56 111
  1 neighbor lists, perpetual/occasional/extra = 1 0 0
  (1) pair lj/cut/opt, perpetual
      attributes: half, newton on
      pair build: half/bin/newton
      stencil: half/bin/3d/newton
      bin: standard
 rebalancing time: 0.051 seconds
  iteration count = 3
  initial/final maximal load/proc = 2495.0000 2444.0000
  initial/final imbalance factor  = 1.5089775 1.4781327
  x cuts: 0.0000000 0.16666667 0.33333333 0.50000000 0.66666667 0.83333333 1.0000000
  y cuts: 0.0000000 0.25000000 0.50000000 0.75000000 1.0000000
  z cuts: 0.0000000 0.072916667 0.13541667 0.19791667 0.26041667 0.34375000 0.39583333 0.47916667 0.52083333 0.60416667 0.68750000 0.76041667 1.0000000

####################### WALLS ###########################

variable       epsilonWall equal 2*${epsilon}
variable       epsilonWall equal 2*1
variable       repulsive   equal   0.7147*${sigma}
variable       repulsive   equal   0.7147*1
variable       full	   equal   3*${sigma}
variable       full	   equal   3*1
region         lowWall block EDGE EDGE EDGE EDGE EDGE 2

fix            topWall all wall/lj93 zhi EDGE 	       ${epsilonWall} ${sigma} ${repulsive} units box
fix            topWall all wall/lj93 zhi EDGE 	       2 ${sigma} ${repulsive} units box
fix            topWall all wall/lj93 zhi EDGE 	       2 1 ${repulsive} units box
fix            topWall all wall/lj93 zhi EDGE 	       2 1 0.7147 units box
fix            lowSol solvent wall/lj93 zlo EDGE                ${epsilonWall} ${sigma} ${full} units box
fix            lowSol solvent wall/lj93 zlo EDGE                2 ${sigma} ${full} units box
fix            lowSol solvent wall/lj93 zlo EDGE                2 1 ${full} units box
fix            lowSol solvent wall/lj93 zlo EDGE                2 1 3 units box
fix 	       lowCub cubes wall/lj93 zlo EDGE                ${epsilonWall} ${sigma} ${repulsive} units box
fix 	       lowCub cubes wall/lj93 zlo EDGE                2 ${sigma} ${repulsive} units box
fix 	       lowCub cubes wall/lj93 zlo EDGE                2 1 ${repulsive} units box
fix 	       lowCub cubes wall/lj93 zlo EDGE                2 1 0.7147 units box


###################### COMPUTES ##########################

compute        bin1 solvent chunk/atom bin/1d z lower 1.0 units box


######################  FIXES ############################


fix             peclet solvent ave/chunk 10 10 10000 bin1 density/number norm                  none ave one file density.profile

fix              temp solvent ave/chunk 10 10 10000 bin1 temp norm                  none ave one file temp.profile

fix             1 cubes rigid/nve/small molecule
  create bodies CPU = 0.027 seconds
  96 rigid bodies with 109728 atoms
  6.9282032 = max distance from body owner to body atom

fix             2 solvent nve# temp ${temp} ${temp} 10


## Thermostat
region          regthermo block EDGE EDGE EDGE EDGE 0 15
group           thermo dynamic solvent region regthermo every 1000
dynamic group thermo defined
fix             3 thermo langevin ${temp} ${temp} 10 156453
fix             3 thermo langevin 1.0 ${temp} 10 156453
fix             3 thermo langevin 1.0 1.0 10 156453

## Evaporation
region          regevap block EDGE EDGE EDGE EDGE 140 EDGE
fix             4 solvent evaporate ${evap} 1 regevap 156415
fix             4 solvent evaporate 35 1 regevap 156415

#### Load balancing

fix             bal all balance 1000 1.05 shift z 10 1.05

############### Diagnostics and computes ###################

compute        	com cubes          rigid/local   1 mol x y z
compute        	quat cubes         rigid/local   1 mol quatw quati quatj quatk

compute 	cc2 cubes 	   chunk/atom 	 molecule
compute 	msd cubes 	   msd/chunk 	 cc2

fix 		msd all ave/time  1 1 10000 c_msd[*] file dump.msd ave one mode vector

dump            1 all custom 500000 dump.lammpstrj id mol type x y z
dump		cubetrj hull custom 500000 cubes.lammpstrj id mol type x y z
dump            com cubes local 10000 dump.*.xyz c_com[*]
dump	        xyz hull xyz 100000 cubes.xyz
dump            quat cubes      local 10000 dump.*.quat c_quat[*]
#dump		mol cubes molfile 10000 mol.xyz xyz


dump            2 all image 10000 image.*.png type type zoom 1.5 size 1280 720
dump_modify     2 pad 8
dump		image cubes image 10000 image_cubes.*.png type type zoom 1.5 size 1280 720
dump_modify	image pad 8
dump            3 all movie 5000 movie.avi type type zoom 1.5 size 1280 720
dump		4 cubes movie 5000 movie_cubes.avi type type size 1280 720


thermo          1000
thermo_style    custom step temp epair evdwl etotal press pe ke atoms

restart         1000000 restart.dat
timestep        0.005
timer           full
New timer settings: style=full  mode=nosync  timeout=off

run 		30000000
Per MPI rank memory allocation (min/avg/max) = 14.29 | 18.37 | 23.36 Mbytes
Step Temp E_pair E_vdwl TotEng Press PotEng KinEng Atoms 
       0     1.004883   -2.3922458   -2.3922458   -1.2316481  0.057922176   -2.3922458    1.1605978   476190 
    1000    1.0046879   -2.3937701   -2.3937701   -1.2333295  0.065309052   -2.3937701    1.1604406   476162 
    2000    1.0053925   -2.3939966   -2.3939966   -1.2326714  0.068335366   -2.3939966    1.1613252   476133 
    3000    1.0045671   -2.3927039   -2.3927039   -1.2322639  0.071811561   -2.3927039      1.16044   476105 
    4000    1.0057081   -2.3942368   -2.3942368    -1.232408   0.06482212   -2.3942368    1.1618288   476076 
    5000    1.0054884   -2.3957365   -2.3957365   -1.2340932  0.066595671   -2.3957365    1.1616433   476048 
    6000     1.004852   -2.3950232   -2.3950232   -1.2340443  0.070828213   -2.3950232    1.1609789   476019 
    7000     1.003498   -2.3939819   -2.3939819   -1.2344967  0.069013509   -2.3939819    1.1594852   475990 
    8000    1.0038938   -2.3944214   -2.3944214   -1.2344107  0.068409064   -2.3944214    1.1600107   475962 
    9000    1.0037995   -2.3941582   -2.3941582   -1.2341857  0.072439404   -2.3941582    1.1599725   475933 
   10000    1.0053853   -2.3956225   -2.3956225   -1.2337492  0.068242795   -2.3956225    1.1618733   475905 
   11000    1.0030923   -2.3935181   -2.3935181   -1.2342241  0.068152852   -2.3935181     1.159294   475876 
   12000    1.0051163   -2.3956492   -2.3956492   -1.2339476  0.066747049   -2.3956492    1.1617016   475848 
   13000    1.0049123   -2.3969034   -2.3969034   -1.2353669  0.066608104   -2.3969034    1.1615365   475819 
   14000     1.002979   -2.3944815   -2.3944815   -1.2351089  0.065709579   -2.3944815    1.1593726   475790 
   15000    1.0017742   -2.3934519   -2.3934519   -1.2354038  0.066469655   -2.3934519    1.1580481   475762 
   16000    1.0018131   -2.3937779   -2.3937779   -1.2356143   0.06458821   -2.3937779    1.1581636   475733 
   17000    1.0044385   -2.3968157   -2.3968157   -1.2355486  0.064098373   -2.3968157    1.1612671   475705 
   18000    1.0018147   -2.3950664   -2.3950664   -1.2367621  0.067781915   -2.3950664    1.1583043   475676 
   19000    1.0033559   -2.3960288   -2.3960288   -1.2358743  0.069084493   -2.3960288    1.1601545   475648 
   20000    1.0012372   -2.3941076   -2.3941076   -1.2363323  0.068761377   -2.3941076    1.1577753   475619 
   21000   0.99984817   -2.3921776   -2.3921776   -1.2359379  0.068991728   -2.3921776    1.1562396   475590 
   22000    1.0014817   -2.3951295   -2.3951295   -1.2369326  0.059845171   -2.3951295    1.1581969   475562 
   23000    1.0010992   -2.3936133   -2.3936133   -1.2357881  0.063164722   -2.3936133    1.1578251   475533 
   24000   0.99987824   -2.3928755   -2.3928755   -1.2363945  0.066541685   -2.3928755    1.1564811   475505 
   25000   0.99986541   -2.3926938   -2.3926938    -1.236157  0.065033779   -2.3926938    1.1565368   475476 
   26000    1.0017014   -2.3951664   -2.3951664   -1.2364377  0.072675804   -2.3951664    1.1587287   475448 
   27000    1.0012334   -2.3945156   -2.3945156   -1.2362576  0.062152106   -2.3945156    1.1582579   475419 
   28000    1.0015542   -2.3957939   -2.3957939   -1.2370942  0.061268057   -2.3957939    1.1586997   475390 
   29000    1.0006378   -2.3950702   -2.3950702   -1.2373625  0.069200651   -2.3950702    1.1577077   475362 
   30000   0.99960004   -2.3948653   -2.3948653   -1.2382876  0.063461748   -2.3948653    1.1565777   475333 
   31000    1.0007664    -2.395844    -2.395844   -1.2378486  0.063480772    -2.395844    1.1579954   475305 
   32000    0.9990097   -2.3942516   -2.3942516   -1.2382184   0.07102188   -2.3942516    1.1560332   475276 
   33000   0.99933749     -2.39493     -2.39493   -1.2384493  0.065437301     -2.39493    1.1564807   475248 
   34000    1.0018126   -2.3972437   -2.3972437    -1.237828  0.059860737   -2.3972437    1.1594157   475219 
   35000    1.0018908   -2.3967852   -2.3967852   -1.2372081  0.063836037   -2.3967852     1.159577   475190 
   36000    1.0007972   -2.3970513   -2.3970513   -1.2386717   0.06209896   -2.3970513    1.1583796   475162 
   37000    0.9996674   -2.3963174   -2.3963174   -1.2391749  0.061472667   -2.3963174    1.1571425   475133 
   38000    1.0016871   -2.3978606   -2.3978606   -1.2383119   0.07015865   -2.3978606    1.1595487   475105 
   39000    1.0021742   -2.3981812   -2.3981812   -1.2379978  0.069106781   -2.3981812    1.1601834   475076 
   40000    1.0007339   -2.3958343   -2.3958343     -1.23725  0.069317399   -2.3958343    1.1585843   475048 
   41000   0.99991349   -2.3946113   -2.3946113   -1.2369062  0.065824178   -2.3946113    1.1577051   475019 
   42000    1.0015864   -2.3960126   -2.3960126   -1.2362998  0.064787696   -2.3960126    1.1597128   474990 
   43000    1.0006337   -2.3942219   -2.3942219   -1.2355439  0.072497134   -2.3942219     1.158678   474962 
   44000    1.0023215   -2.3956619   -2.3956619   -1.2349586  0.066710791   -2.3956619    1.1607033   474933 
   45000    1.0035775   -2.3968654   -2.3968654   -1.2346392  0.064017514   -2.3968654    1.1622262   474905 
   46000    1.0005071   -2.3934997   -2.3934997   -1.2347585  0.067092848   -2.3934997    1.1587412   474876 
   47000    1.0004103   -2.3948824   -2.3948824    -1.236185  0.061100393   -2.3948824    1.1586974   474848 
   48000    1.0009948   -2.3953259   -2.3953259   -1.2358807  0.065494473   -2.3953259    1.1594452   474819 
   49000    1.0000976   -2.3939965   -2.3939965   -1.2355197  0.064648225   -2.3939965    1.1584768   474790 
   50000    1.0001859   -2.3948002   -2.3948002   -1.2361528  0.067384067   -2.3948002    1.1586474   474762 
   51000    1.0000944   -2.3941636   -2.3941636   -1.2355515  0.064832914   -2.3941636    1.1586122   474733 
   52000     1.001137   -2.3959202   -2.3959202   -1.2360317  0.070786115   -2.3959202    1.1598884   474705 
   53000    1.0003274   -2.3944847   -2.3944847   -1.2354635  0.064498483   -2.3944847    1.1590213   474676 
   54000     1.000698   -2.3947216   -2.3947216   -1.2352026  0.069357414   -2.3947216     1.159519   474648 
   55000    1.0007759   -2.3937231   -2.3937231    -1.234043  0.073062691   -2.3937231    1.1596801   474619 
   56000   0.99937801   -2.3932265   -2.3932265   -1.2350954  0.066080815   -2.3932265    1.1581311   474590 
   57000   0.99831012   -2.3915497   -2.3915497   -1.2345879  0.067589668   -2.3915497    1.1569618   474562 
   58000     1.000616   -2.3937559   -2.3937559   -1.2340509  0.067171834   -2.3937559     1.159705   474533 
   59000    1.0007328   -2.3932266   -2.3932266   -1.2333178  0.073731087   -2.3932266    1.1599088   474505 
   60000    1.0012409   -2.3932703   -2.3932703   -1.2327017  0.066969651   -2.3932703    1.1605686   474476 
   61000   0.99979057   -2.3917866   -2.3917866   -1.2328307  0.069760153   -2.3917866    1.1589559   474448 
   62000    1.0009682   -2.3943267   -2.3943267   -1.2339348  0.068603022   -2.3943267    1.1603919   474419 
   63000    1.0005702   -2.3945714   -2.3945714   -1.2345699  0.066646959   -2.3945714    1.1600015   474390 
   64000    1.0004658   -2.3957564   -2.3957564   -1.2358076  0.068452925   -2.3957564    1.1599489   474362 
   65000   0.99915321   -2.3944019   -2.3944019    -1.235904  0.072990246   -2.3944019    1.1584979   474333 
   66000   0.99845687   -2.3943693   -2.3943693   -1.2366105  0.068751877   -2.3943693    1.1577589   474305 
   67000   0.99838462   -2.3950117   -2.3950117   -1.2372659  0.063155659   -2.3950117    1.1577459   474276 
   68000    1.0000916   -2.3956951   -2.3956951   -1.2359014  0.062549184   -2.3956951    1.1597937   474248 
   69000   0.99902729   -2.3949895   -2.3949895   -1.2363591  0.063187913   -2.3949895    1.1586304   474219 
   70000    0.9971256   -2.3927085   -2.3927085   -1.2362129  0.069717361   -2.3927085    1.1564956   474190 
   71000   0.99859316    -2.395663    -2.395663   -1.2373969    0.0640793    -2.395663    1.1582661   474162 
   72000   0.99779786    -2.394616    -2.394616   -1.2372015    0.0690194    -2.394616    1.1574144   474133 
   73000    0.9992147   -2.3965135   -2.3965135   -1.2373871  0.067022046   -2.3965135    1.1591264   474105 
   74000   0.99891628   -2.3955043   -2.3955043   -1.2366532  0.065014641   -2.3955043    1.1588511   474076 
   75000   0.99572337   -2.3933263   -2.3933263   -1.2381111  0.063609859   -2.3933263    1.1552152   474048 
   76000   0.99646122   -2.3939582   -2.3939582   -1.2378163  0.056231947   -2.3939582    1.1561419   474019 
   77000    0.9962734   -2.3942188   -2.3942188   -1.2382241  0.062852598   -2.3942188    1.1559947   473990 
   78000     0.997966    -2.395885    -2.395885   -1.2378579  0.066194523    -2.395885    1.1580271   473962 
   79000   0.99871874   -2.3963994   -2.3963994   -1.2374279  0.063991186   -2.3963994    1.1589715   473933 
   80000   0.99863061   -2.3956341   -2.3956341   -1.2366964   0.07192909   -2.3956341    1.1589377   473905 
   81000   0.99721011   -2.3952387   -2.3952387   -1.2378787  0.069509499   -2.3952387      1.15736   473876 
   82000   0.99738529   -2.3959051   -2.3959051   -1.2382734   0.06660466   -2.3959051    1.1576317   473848 
   83000   0.99661645   -2.3954721   -2.3954721    -1.238662  0.064950776   -2.3954721    1.1568101   473819 
   84000    0.9992292   -2.3989426   -2.3989426   -1.2390287  0.067438071   -2.3989426    1.1599138   473790 
   85000   0.99781363   -2.3966539   -2.3966539   -1.2383148  0.067351378   -2.3966539    1.1583391   473762 
   86000   0.99808931    -2.396208    -2.396208   -1.2374779  0.068111774    -2.396208      1.15873   473733 
   87000     0.996255   -2.3953814   -2.3953814   -1.2387126  0.060309862   -2.3953814    1.1566689   473705 
   88000   0.99753421   -2.3964693   -2.3964693   -1.2382443  0.068338564   -2.3964693     1.158225   473676 
   89000   0.99917262   -2.3984855   -2.3984855   -1.2382897  0.062353785   -2.3984855    1.1601959   473648 
   90000    0.9975833   -2.3969624   -2.3969624    -1.238541  0.064668557   -2.3969624    1.1584214   473619 
   91000   0.99839438   -2.3982705   -2.3982705   -1.2388364  0.061447405   -2.3982705    1.1594342   473590 
   92000   0.99873805   -2.3986262   -2.3986262   -1.2387243  0.064731515   -2.3986262    1.1599019   473562 
   93000   0.99919412   -2.3991877   -2.3991877   -1.2386851   0.06692998   -2.3991877    1.1605026   473533 
   94000   0.99879093   -2.3984464   -2.3984464   -1.2383435  0.070358561   -2.3984464    1.1601029   473505 
   95000   0.99734971   -2.3975491   -2.3975491   -1.2390492  0.067375464   -2.3975491    1.1584999   473476 
   96000   0.99801703   -2.3981892   -2.3981892   -1.2388456  0.070146912   -2.3981892    1.1593436   473448 
   97000   0.99776685   -2.3988725   -2.3988725   -1.2397485  0.062740479   -2.3988725     1.159124   473419 
   98000   0.99675419   -2.3982872   -2.3982872   -1.2402687  0.061716902   -2.3982872    1.1580185   473390 
   99000   0.99605664   -2.3970115   -2.3970115    -1.239735  0.069230529   -2.3970115    1.1572765   473362 
  100000   0.99612889   -2.3976828   -2.3976828   -1.2402514  0.069069169   -2.3976828    1.1574314   473333 
  101000   0.99527034   -2.3974875   -2.3974875   -1.2409853  0.067256078   -2.3974875    1.1565022   473305 
  102000   0.99411485   -2.3969126   -2.3969126   -1.2416823  0.069359759   -2.3969126    1.1552303   473276 
  103000   0.99795014   -2.4006354   -2.4006354   -1.2408796  0.065817992   -2.4006354    1.1597558   473248 
  104000   0.99456601   -2.3967478   -2.3967478    -1.240854  0.062928862   -2.3967478    1.1558938   473219 
  105000   0.99574754   -2.3956953   -2.3956953   -1.2383574  0.070507485   -2.3956953    1.1573379   473190 
  106000   0.99688191   -2.3972318   -2.3972318   -1.2385068  0.064379801   -2.3972318    1.1587249   473162 
  107000   0.99630403   -2.3971394   -2.3971394   -1.2390151  0.065574744   -2.3971394    1.1581242   473133 
  108000   0.99765924   -2.3979802   -2.3979802    -1.238212   0.06204281   -2.3979802    1.1597682   473105 
  109000   0.99491436   -2.3951615   -2.3951615   -1.2385133  0.063430792   -2.3951615    1.1566482   473076 
  110000   0.99572568   -2.3960703   -2.3960703   -1.2384104  0.060761954   -2.3960703    1.1576599   473048 
  111000    0.9948838   -2.3957692   -2.3957692   -1.2390171  0.068302033   -2.3957692     1.156752   473019 
  112000   0.99590202   -2.3968593   -2.3968593   -1.2388524  0.062822542   -2.3968593    1.1580069   472990 
  113000   0.99458429   -2.3960829   -2.3960829   -1.2395397  0.066058227   -2.3960829    1.1565432   472962 
  114000   0.99450335   -2.3961857   -2.3961857   -1.2396657  0.066733188   -2.3961857      1.15652   472933 
  115000   0.99337105   -2.3944456   -2.3944456    -1.239174  0.062958955   -2.3944456    1.1552716   472905 
  116000    0.9962535   -2.3983902   -2.3983902   -1.2396953  0.065779227   -2.3983902    1.1586949   472876 
  117000   0.99512121   -2.3977976   -2.3977976   -1.2403511  0.062558666   -2.3977976    1.1574465   472848 
  118000   0.99362814    -2.396301    -2.396301   -1.2405202  0.059391588    -2.396301    1.1557808   472819 
  119000   0.99272742    -2.396258    -2.396258   -1.2414541  0.067037503    -2.396258    1.1548039   472790 
  120000   0.99449386   -2.3979306   -2.3979306   -1.2410033  0.065820848   -2.3979306    1.1569272   472762 
  121000   0.99363616   -2.3966921   -2.3966921   -1.2406917  0.065023282   -2.3966921    1.1560004   472733 
  122000   0.99299111   -2.3958034   -2.3958034   -1.2404851  0.066756977   -2.3958034    1.1553183   472705 
  123000   0.99287715   -2.3949038   -2.3949038   -1.2396472  0.066435338   -2.3949038    1.1552566   472676 
  124000   0.99274663   -2.3934349   -2.3934349   -1.2382617  0.075910864   -2.3934349    1.1551732   472648 
  125000   0.99414551   -2.3941828   -2.3941828   -1.2373109     0.065856   -2.3941828    1.1568719   472619 
  126000   0.99520101   -2.3969999   -2.3969999   -1.2388286  0.059344562   -2.3969999    1.1581713   472590 
  127000   0.99402716   -2.3952681   -2.3952681   -1.2383944  0.065884301   -2.3952681    1.1568737   472562 
  128000   0.99335809    -2.394132    -2.394132    -1.237966  0.066048467    -2.394132     1.156166   472533 
  129000   0.99357928   -2.3953728   -2.3953728   -1.2388808  0.065938406   -2.3953728     1.156492   472505 
  130000   0.99472482   -2.3966328   -2.3966328   -1.2387364  0.067908588   -2.3966328    1.1578964   472476 
  131000   0.99538497   -2.3981251   -2.3981251   -1.2393916  0.066065463   -2.3981251    1.1587335   472448 
  132000   0.99370036   -2.3963941   -2.3963941   -1.2395507  0.066572274   -2.3963941    1.1568434   472419 
  133000   0.99444365   -2.3962897   -2.3962897   -1.2385099  0.066957489   -2.3962897    1.1577798   472390 
  134000   0.99448253   -2.3960712   -2.3960712   -1.2381775  0.067434311   -2.3960712    1.1578937   472362 
  135000   0.99373854   -2.3952862   -2.3952862   -1.2381877  0.064157444   -2.3952862    1.1570985   472333 
  136000   0.99079122   -2.3935921   -2.3935921    -1.239857  0.064785849   -2.3935921    1.1537351   472305 
  137000   0.99160602   -2.3945947   -2.3945947   -1.2398399  0.067129144   -2.3945947    1.1547548   472276 
  138000   0.99150125   -2.3955803   -2.3955803    -1.240879  0.062977673   -2.3955803    1.1547013   472248 
  139000   0.99141453   -2.3957361   -2.3957361   -1.2410649  0.064254953   -2.3957361    1.1546712   472219 
  140000   0.99208901   -2.3968787   -2.3968787    -1.241351  0.059253263   -2.3968787    1.1555277   472190 
  141000   0.99140025   -2.3961819   -2.3961819   -1.2413879  0.066282487   -2.3961819    1.1547939   472162 
  142000   0.99371839   -2.3986481   -2.3986481   -1.2410829  0.064267595   -2.3986481    1.1575652   472133 
  143000   0.99305526   -2.3975446   -2.3975446   -1.2406832  0.059220601   -2.3975446    1.1568614   472105 
  144000   0.99200663   -2.3963316   -2.3963316   -1.2406209  0.060563244   -2.3963316    1.1557107   472076 
  145000   0.99162785   -2.3949385   -2.3949385   -1.2396005  0.065259216   -2.3949385     1.155338   472048 
  146000   0.99166704   -2.3955203   -2.3955203   -1.2400657  0.064817609   -2.3955203    1.1554546   472019 
  147000   0.99241066   -2.3967734   -2.3967734   -1.2403813  0.069670475   -2.3967734    1.1563921   471990 
  148000   0.99370527     -2.39964     -2.39964   -1.2416706   0.06531535     -2.39964    1.1579693   471962 
  149000   0.99448106     -2.39938     -2.39938   -1.2404354  0.068764197     -2.39938    1.1589446   471933 
  150000   0.99673576   -2.4008681   -2.4008681    -1.239227  0.064524056   -2.4008681    1.1616411   471905 
  151000   0.99353293   -2.3989618   -2.3989618   -1.2409823  0.066465534   -2.3989618    1.1579795   471876 
  152000   0.99242098   -2.3991108   -2.3991108   -1.2423586   0.06275517   -2.3991108    1.1567522   471848 
  153000    0.9940585   -2.3998492   -2.3998492   -1.2411172  0.064231466   -2.3998492     1.158732   471819 
  154000   0.99076918   -2.3969372   -2.3969372   -1.2419684  0.074991073   -2.3969372    1.1549688   471790 
  155000   0.99126659   -2.3970593   -2.3970593    -1.241442  0.061423084   -2.3970593    1.1556172   471762 
  156000   0.99084545   -2.3962179   -2.3962179   -1.2410206  0.064974133   -2.3962179    1.1551973   471733 
  157000   0.99028684    -2.396562    -2.396562   -1.2419474  0.068487452    -2.396562    1.1546146   471705 
  158000   0.98785872   -2.3954275   -2.3954275   -1.2435731  0.066964276   -2.3954275    1.1518543   471676 
  159000   0.99164697   -2.3984983   -2.3984983   -1.2421582  0.059383565   -2.3984983    1.1563401   471648 
  160000   0.99060313   -2.3982361   -2.3982361   -1.2430422  0.066277391   -2.3982361    1.1551939   471619 
  161000   0.99155767   -2.3984899   -2.3984899   -1.2421117  0.062320399   -2.3984899    1.1563782   471590 
  162000   0.99084955    -2.397543    -2.397543    -1.241922    0.0693805    -2.397543     1.155621   471562 
  163000   0.99132653    -2.399513    -2.399513   -1.2432646  0.067332252    -2.399513    1.1562484   471533 
  164000    0.9912108   -2.3988344   -2.3988344   -1.2426523  0.064372025   -2.3988344    1.1561821   471505 
  165000   0.98801296   -2.3964799   -2.3964799    -1.243957  0.061400861   -2.3964799    1.1525229   471476 
  166000   0.98989875   -2.3970291   -2.3970291   -1.2422379  0.060464217   -2.3970291    1.1547912   471448 
  167000   0.99099671   -2.3977673   -2.3977673   -1.2416241  0.058425223   -2.3977673    1.1561432   471419 
  168000    0.9909395   -2.3983275   -2.3983275   -1.2421799  0.062254451   -2.3983275    1.1561476   471390 
  169000   0.98826935   -2.3952053   -2.3952053   -1.2421046  0.067607091   -2.3952053    1.1531008   471362 
  170000   0.99156585   -2.3991286   -2.3991286   -1.2421103  0.064757191   -2.3991286    1.1570183   471333 
  171000   0.99042913   -2.3984577   -2.3984577   -1.2426972  0.066000555   -2.3984577    1.1557605   471305 
  172000   0.99002078   -2.3985018   -2.3985018   -1.2431467  0.068513117   -2.3985018    1.1553551   471276 
  173000     0.989999   -2.3987023   -2.3987023    -1.243304  0.064115093   -2.3987023    1.1553983   471248 
  174000   0.98877763   -2.3967311   -2.3967311   -1.2426872  0.065628525   -2.3967311    1.1540439   471219 
  175000   0.98821572    -2.396472    -2.396472   -1.2430129  0.062781035    -2.396472    1.1534591   471190 
  176000   0.98724461   -2.3936127   -2.3936127   -1.2412186  0.062454548   -2.3936127    1.1523941   471162 
  177000      0.98932   -2.3962158   -2.3962158   -1.2413281  0.064130015   -2.3962158    1.1548877   471133 
  178000   0.99079952   -2.3971854   -2.3971854   -1.2405018  0.060098938   -2.3971854    1.1566836   471105 
  179000   0.98849839   -2.3952424   -2.3952424   -1.2411742  0.061955053   -2.3952424    1.1540682   471076 
  180000    0.9891512   -2.3953044   -2.3953044   -1.2404053  0.062878956   -2.3953044     1.154899   471048 
  181000   0.99002014   -2.3978784   -2.3978784   -1.2418936  0.061804841   -2.3978784    1.1559848   471019 
  182000     0.987505   -2.3962115   -2.3962115   -1.2430925  0.059886726   -2.3962115     1.153119   470990 
  183000   0.98895672   -2.3970177   -2.3970177   -1.2421349  0.060187011   -2.3970177    1.1548828   470962 
  184000   0.98773023   -2.3962957   -2.3962957   -1.2427741  0.058995522   -2.3962957    1.1535216   470933 
  185000   0.98824963    -2.396676    -2.396676   -1.2424792   0.06511387    -2.396676    1.1541968   470905 
  186000   0.98709195   -2.3958344   -2.3958344   -1.2429187  0.061555821   -2.3958344    1.1529157   470876 
  187000   0.98671506   -2.3956178   -2.3956178   -1.2430738   0.07246619   -2.3956178     1.152544   470848 
  188000    0.9886294   -2.3985858   -2.3985858   -1.2437346   0.06629633   -2.3985858    1.1548512   470819 
  189000   0.98944888   -2.3993419   -2.3993419   -1.2434622  0.064343903   -2.3993419    1.1558797   470790 
  190000   0.98750041   -2.3972674   -2.3972674   -1.2435953  0.060746758   -2.3972674    1.1536721   470762 
  191000   0.98805005   -2.3978296   -2.3978296   -1.2434443  0.064159034   -2.3978296    1.1543853   470733 
  192000   0.98725449   -2.3978884   -2.3978884   -1.2443639  0.060815536   -2.3978884    1.1535245   470705 
  193000   0.98884018    -2.398657    -2.398657   -1.2432086  0.062393478    -2.398657    1.1554484   470676 
  194000   0.98748924   -2.3979123   -2.3979123   -1.2439738  0.063642886   -2.3979123    1.1539385   470648 
  195000   0.98803068   -2.3996336   -2.3996336   -1.2449913  0.065195485   -2.3996336    1.1546423   470619 
  196000   0.98841669   -2.4003391   -2.4003391   -1.2451745  0.062221921   -2.4003391    1.1551646   470590 
  197000   0.98798664   -2.3990814   -2.3990814   -1.2443507  0.062478422   -2.3990814    1.1547307   470562 
  198000   0.98881638   -2.4005313   -2.4005313   -1.2447596  0.057895802   -2.4005313    1.1557717   470533 
  199000   0.98802202   -2.3995535   -2.3995535   -1.2446415  0.061593075   -2.3995535     1.154912   470505 
  200000   0.98736516   -2.3998688   -2.3998688   -1.2456535  0.063391965   -2.3998688    1.1542153   470476 
  201000   0.98743272   -2.4000645   -2.4000645   -1.2457015  0.059542702   -2.4000645     1.154363   470448 
  202000   0.98595515   -2.3985019   -2.3985019   -1.2457952  0.068257436   -2.3985019    1.1527067   470419 
  203000   0.98663994   -2.4005517   -2.4005517   -1.2469733   0.06208029   -2.4005517    1.1535784   470390 
  204000   0.98519628   -2.3982435   -2.3982435   -1.2462844  0.063658108   -2.3982435     1.151959   470362 
  205000   0.98573267   -2.3997378   -2.3997378   -1.2470805  0.054638443   -2.3997378    1.1526573   470333 
  206000   0.98525777   -2.3991445   -2.3991445   -1.2469739  0.063532846   -2.3991445    1.1521706   470305 
  207000   0.98492848   -2.3989491   -2.3989491   -1.2470926   0.06749784   -2.3989491    1.1518565   470276 
  208000   0.98406186   -2.3994546   -2.3994546   -1.2485431  0.059002517   -2.3994546    1.1509115   470248 
  209000   0.98461898   -2.4001567   -2.4001567   -1.2485226  0.054135868   -2.4001567    1.1516341   470219 
  210000   0.98393761   -2.3985739   -2.3985739   -1.2476658  0.064468117   -2.3985739    1.1509082   470190 
  211000   0.98375774   -2.3991018   -2.3991018   -1.2483355  0.058953454   -2.3991018    1.1507663   470162 
  212000   0.98467129   -2.3997939   -2.3997939   -1.2478879  0.062109034   -2.3997939     1.151906   470133 
  213000   0.98430527   -2.3992776   -2.3992776   -1.2477312  0.065862184   -2.3992776    1.1515464   470105 
  214000   0.98563737   -2.4007829   -2.4007829   -1.2476069  0.064766714   -2.4007829     1.153176   470076 
  215000   0.98405901   -2.4008755   -2.4008755   -1.2494776  0.056628551   -2.4008755    1.1513979   470048 
  216000   0.98491257   -2.4017918   -2.4017918   -1.2493241  0.064862556   -2.4017918    1.1524677   470019 
  217000   0.98489597   -2.4011781   -2.4011781   -1.2486587  0.060637189   -2.4011781    1.1525194   469990 
  218000   0.98527674   -2.4013525   -2.4013525   -1.2483188  0.067460533   -2.4013525    1.1530337   469962 
  219000   0.98650674   -2.4024973   -2.4024973   -1.2479529  0.059730381   -2.4024973    1.1545443   469933 
  220000   0.98606248   -2.4016424   -2.4016424   -1.2475492  0.060741208   -2.4016424    1.1540932   469905 
  221000   0.98466015   -2.4001195   -2.4001195   -1.2475965   0.06217675   -2.4001195     1.152523   469876 
  222000   0.98280308   -2.3985467   -2.3985467   -1.2481288  0.061618992   -2.3985467    1.1504179   469848 
  223000   0.98355468    -2.398687    -2.398687   -1.2473182  0.058006774    -2.398687    1.1513687   469819 
  224000   0.98263493    -2.397873    -2.397873     -1.24751   0.06178468    -2.397873    1.1503631   469790 
  225000   0.98394633    -2.399213    -2.399213    -1.247246  0.065464915    -2.399213     1.151967   469762 
  226000   0.98416946   -2.4001541   -2.4001541   -1.2478548  0.062257392   -2.4001541    1.1522993   469733 
  227000   0.98280375   -2.3989964   -2.3989964   -1.2482275  0.067917548   -2.3989964    1.1507689   469705 
  228000   0.98489561    -2.400919    -2.400919   -1.2476296  0.054638442    -2.400919    1.1532895   469676 
  229000   0.98561433   -2.4020204   -2.4020204   -1.2478205  0.061887803   -2.4020204    1.1541999   469648 
  230000    0.9841541   -2.4012971   -2.4012971    -1.248736  0.063557854   -2.4012971    1.1525611   469619 
  231000   0.98368216    -2.401266    -2.401266   -1.2491865  0.064656818    -2.401266    1.1520795   469590 
  232000   0.98425358   -2.4020664   -2.4020664   -1.2492489  0.063079525   -2.4020664    1.1528175   469562 
  233000   0.98605065    -2.403987    -2.403987   -1.2489933  0.063784444    -2.403987    1.1549937   469533 
  234000   0.98406637   -2.4019403   -2.4019403   -1.2492021  0.062013393   -2.4019403    1.1527382   469505 
  235000   0.98298277    -2.401097    -2.401097    -1.249557  0.061504711    -2.401097      1.15154   469476 
  236000   0.98360807   -2.4013327   -2.4013327   -1.2489915  0.071046129   -2.4013327    1.1523412   469448 
  237000   0.98484421   -2.4023299   -2.4023299   -1.2484693   0.05977456   -2.4023299    1.1538607   469419 
  238000   0.98662559   -2.4044628   -2.4044628   -1.2484436  0.064918747   -2.4044628    1.1560192   469390 
  239000   0.98308436   -2.4007164   -2.4007164   -1.2487777  0.066728067   -2.4007164    1.1519387   469362 
  240000   0.98362387    -2.400249    -2.400249   -1.2476069  0.064049989    -2.400249    1.1526421   469333 
  241000   0.98373759   -2.3999836   -2.3999836   -1.2471395  0.065525651   -2.3999836    1.1528441   469305 
  242000   0.98157641   -2.3968503   -2.3968503   -1.2464678   0.06269023   -2.3968503    1.1503825   469276 
  243000   0.98202386   -2.3977298   -2.3977298   -1.2467542  0.062301603   -2.3977298    1.1509756   469248 
  244000    0.9829588   -2.3991777   -2.3991777   -1.2470351  0.066976773   -2.3991777    1.1521426   469219 
  245000   0.98422161    -2.401065    -2.401065    -1.247371  0.064753318    -2.401065     1.153694   469190 
  246000   0.98350476   -2.3991538   -2.3991538   -1.2462312  0.062418851   -2.3991538    1.1529226   469162 
  247000   0.98320129   -2.3984346   -2.3984346   -1.2457966  0.066657633   -2.3984346    1.1526381   469133 
  248000   0.98276123   -2.3985043   -2.3985043   -1.2463134  0.061929799   -2.3985043    1.1521909   469105 
  249000   0.98316048   -2.3986514   -2.3986514   -1.2459211  0.059377803   -2.3986514    1.1527303   469076 
  250000   0.98205992   -2.3966088   -2.3966088   -1.2451001  0.058878608   -2.3966088    1.1515086   469048 
  251000   0.98095482   -2.3949508   -2.3949508   -1.2446668  0.058674952   -2.3949508     1.150284   469019 
  252000   0.98160727   -2.3966544   -2.3966544   -1.2455342  0.061331251   -2.3966544    1.1511202   468990 
  253000   0.98143535   -2.3963216   -2.3963216   -1.2453342  0.061890298   -2.3963216    1.1509873   468962 
  254000   0.98101485   -2.3950678   -2.3950678   -1.2445024  0.066343506   -2.3950678    1.1505653   468933 
  255000   0.98079295   -2.3952827   -2.3952827   -1.2449089  0.061891307   -2.3952827    1.1503738   468905 
  256000   0.98177299   -2.3972423   -2.3972423   -1.2456478  0.062279016   -2.3972423    1.1515945   468876 
  257000   0.98164911   -2.3971222   -2.3971222   -1.2456042  0.062676218   -2.3971222    1.1515179   468848 
  258000   0.98042587   -2.3956031   -2.3956031   -1.2454489  0.061747384   -2.3956031    1.1501542   468819 
  259000   0.98228322   -2.3975365   -2.3975365   -1.2451322  0.055931126   -2.3975365    1.1524044   468790 
  260000   0.98131382   -2.3973811   -2.3973811   -1.2460453  0.059083988   -2.3973811    1.1513358   468762 
  261000   0.98085312   -2.3981012   -2.3981012   -1.2472347  0.065550768   -2.3981012    1.1508665   468733 
  262000   0.98062077   -2.3987454   -2.3987454   -1.2480828  0.064132666   -2.3987454    1.1506626   468705 
  263000   0.97943748   -2.3984339   -2.3984339   -1.2490886  0.057470088   -2.3984339    1.1493453   468676 
  264000   0.97816201   -2.3975375   -2.3975375   -1.2496204  0.058551602   -2.3975375    1.1479171   468648 
  265000   0.97902472   -2.3990088   -2.3990088   -1.2500082  0.056496416   -2.3990088    1.1490006   468619 
  266000   0.97962832   -2.3988066   -2.3988066   -1.2490264  0.058469519   -2.3988066    1.1497802   468590 
  267000   0.98003527   -2.3992617   -2.3992617   -1.2489351  0.064784963   -2.3992617    1.1503265   468562 
  268000   0.97996969   -2.3992058   -2.3992058    -1.248885  0.061733714   -2.3992058    1.1503208   468533 
  269000   0.98041932   -2.4008819   -2.4008819   -1.2499645  0.060914595   -2.4008819    1.1509173   468505 
  270000   0.97961919    -2.399197    -2.399197   -1.2491477  0.059080256    -2.399197    1.1500492   468476 
  271000   0.98253992   -2.4032081   -2.4032081   -1.2496611  0.058429692   -2.4032081    1.1535471   468448 
  272000   0.97853184    -2.398272    -2.398272   -1.2493595  0.066337882    -2.398272    1.1489125   468419 
  273000   0.97930382   -2.4003563   -2.4003563   -1.2504662  0.065523905   -2.4003563    1.1498901   468390 
  274000   0.97986298   -2.4003024   -2.4003024    -1.249687  0.064207992   -2.4003024    1.1506154   468362 
  275000   0.97874685   -2.3992001   -2.3992001   -1.2498241  0.057089988   -2.3992001     1.149376   468333 
  276000   0.97770806   -2.3979543   -2.3979543   -1.2497296  0.064160889   -2.3979543    1.1482248   468305 
  277000   0.97980797   -2.4014007   -2.4014007   -1.2506385  0.060526594   -2.4014007    1.1507622   468276 
  278000   0.97863296   -2.4009649   -2.4009649    -1.251514  0.062327835   -2.4009649    1.1494509   468248 
  279000    0.9779717   -2.4002426   -2.4002426   -1.2514972  0.065377255   -2.4002426    1.1487453   468219 
  280000   0.97941439   -2.4014285   -2.4014285   -1.2509173  0.061206178   -2.4014285    1.1505112   468190 
  281000   0.97949288   -2.4023122   -2.4023122     -1.25164  0.060569167   -2.4023122    1.1506722   468162 
  282000   0.98048909   -2.4039581   -2.4039581   -1.2520442   0.06087326   -2.4039581    1.1519139   468133 
  283000   0.98069849    -2.406181    -2.406181   -1.2539522  0.057977396    -2.406181    1.1522288   468105 
  284000   0.97958377   -2.4035112   -2.4035112   -1.2525208  0.066117057   -2.4035112    1.1509904   468076 
  285000   0.97932734   -2.4030235   -2.4030235   -1.2522655   0.06409491   -2.4030235     1.150758   468048 
  286000   0.97919097   -2.4034368   -2.4034368   -1.2527677   0.06032368   -2.4034368     1.150669   468019 
  287000   0.97939816   -2.4042437   -2.4042437   -1.2532599  0.061289347   -2.4042437    1.1509838   467990 
  288000   0.97889451   -2.4039969   -2.4039969   -1.2535362  0.065154077   -2.4039969    1.1504608   467962 
  289000   0.97768764   -2.4029851   -2.4029851   -1.2538716  0.063642509   -2.4029851    1.1491136   467933 
  290000   0.97835231   -2.4033404   -2.4033404   -1.2533768  0.062917462   -2.4033404    1.1499636   467905 
  291000   0.97977479   -2.4040852   -2.4040852   -1.2523783  0.066106447   -2.4040852     1.151707   467876 
  292000   0.97984053   -2.4024552   -2.4024552   -1.2506021  0.062346323   -2.4024552    1.1518532   467848 
  293000   0.98021092   -2.4034811   -2.4034811   -1.2511211  0.059158725   -2.4034811      1.15236   467819 
  294000   0.98054488   -2.4044923   -2.4044923   -1.2516682  0.068860719   -2.4044923    1.1528241   467790 
  295000   0.97912618   -2.4029804   -2.4029804   -1.2517554  0.062721043   -2.4029804     1.151225   467762 
  296000   0.97819331   -2.4025491   -2.4025491   -1.2523496  0.062208592   -2.4025491    1.1501995   467733 
  297000   0.97934379    -2.403764    -2.403764   -1.2521428   0.06399995    -2.403764    1.1516212   467705 
  298000   0.97926582   -2.4026499   -2.4026499    -1.251049  0.061766207   -2.4026499     1.151601   467676 
  299000   0.97970418   -2.4038775   -2.4038775    -1.251692  0.064056064   -2.4038775    1.1521854   467648 
  300000    0.9790625   -2.4029438   -2.4029438   -1.2514416  0.068742653   -2.4029438    1.1515022   467619 
  301000   0.97951981   -2.4034144   -2.4034144   -1.2513029  0.063774975   -2.4034144    1.1521115   467590 
  302000   0.98098504    -2.405161    -2.405161    -1.251257  0.063422904    -2.405161     1.153904   467562 
  303000   0.97936644   -2.4030932   -2.4030932   -1.2510216  0.064855176   -2.4030932    1.1520715   467533 
  304000   0.97720861   -2.4013434   -2.4013434   -1.2517414  0.064440063   -2.4013434     1.149602   467505 
  305000   0.97640353   -2.4009109   -2.4009109   -1.2521847  0.064909802   -2.4009109    1.1487262   467476 
  306000   0.97722081   -2.4029141   -2.4029141   -1.2531575  0.063082177   -2.4029141    1.1497566   467448 
  307000   0.97820447   -2.4035169   -2.4035169   -1.2525316  0.060524722   -2.4035169    1.1509853   467419 
  308000   0.97705779    -2.403398    -2.403398   -1.2536906   0.06105765    -2.403398    1.1497074   467390 
  309000   0.97703357   -2.4053307   -2.4053307   -1.2555829  0.055962019   -2.4053307    1.1497478   467362 
  310000   0.97659539   -2.4049614   -2.4049614    -1.255658  0.065082602   -2.4049614    1.1493035   467333 
  311000   0.97728478   -2.4063196   -2.4063196   -1.2561359   0.06845293   -2.4063196    1.1501837   467305 
  312000   0.97643626   -2.4044445   -2.4044445   -1.2551881  0.064197113   -2.4044445    1.1492564   467276 
  313000   0.97610968    -2.403252    -2.403252   -1.2543111  0.066372095    -2.403252    1.1489409   467248 
  314000   0.97594585   -2.4031706   -2.4031706   -1.2543513  0.062846483   -2.4031706    1.1488193   467219 
  315000    0.9767349   -2.4039161   -2.4039161   -1.2540966  0.061358071   -2.4039161    1.1498195   467190 
  316000   0.97620417   -2.4037835   -2.4037835   -1.2545199  0.064614938   -2.4037835    1.1492636   467162 
  317000   0.97849015   -2.4049985   -2.4049985   -1.2529721  0.065299563   -2.4049985    1.1520263   467133 
  318000   0.97644719   -2.4025975   -2.4025975   -1.2529075  0.057526406   -2.4025975      1.14969   467105 
  319000   0.97447298   -2.4011162   -2.4011162   -1.2536795  0.057417663   -2.4011162    1.1474367   467076 
  320000    0.9754994   -2.4008262   -2.4008262    -1.252112  0.065872912   -2.4008262    1.1487142   467048 
  321000   0.97444534    -2.400563    -2.400563   -1.2530187  0.067010155    -2.400563    1.1475442   467019 
  322000   0.97665738   -2.4024971   -2.4024971   -1.2522764  0.055911898   -2.4024971    1.1502206   466990 
  323000   0.97802143   -2.4049678   -2.4049678   -1.2530716  0.061280366   -2.4049678    1.1518962   466962 
  324000   0.97722532    -2.404129    -2.404129    -1.253099  0.063784709    -2.404129      1.15103   466933 
  325000   0.97596675   -2.4028485   -2.4028485    -1.253232  0.060772613   -2.4028485    1.1496165   466905 
  326000   0.97668599    -2.403266    -2.403266   -1.2527308  0.061145665    -2.403266    1.1505352   466876 
  327000   0.97596111   -2.4027709   -2.4027709   -1.2530207  0.061013503   -2.4027709    1.1497502   466848 
  328000   0.97543352   -2.4025107   -2.4025107   -1.2533106  0.066356645   -2.4025107    1.1492001   466819 
  329000    0.9759965   -2.4025832   -2.4025832   -1.2526484  0.057995475   -2.4025832    1.1499348   466790 
  330000   0.97704647   -2.4031842   -2.4031842   -1.2519432  0.061428559   -2.4031842     1.151241   466762 
  331000   0.97575703   -2.4017986   -2.4017986   -1.2520055  0.054847899   -2.4017986    1.1497931   466733 
  332000   0.97408969   -2.4006749   -2.4006749   -1.2527777  0.066376606   -2.4006749    1.1478972   466705 
  333000   0.97251006    -2.399122    -2.399122   -1.2530151  0.061911205    -2.399122    1.1461069   466676 
  334000   0.97475176   -2.4006778   -2.4006778   -1.2518601  0.058365262   -2.4006778    1.1488177   466648 
  335000   0.97458146   -2.4007257   -2.4007257   -1.2520373  0.063384248   -2.4007257    1.1486884   466619 
  336000   0.97482055   -2.4019835   -2.4019835   -1.2529419  0.064581842   -2.4019835    1.1490416   466590 
  337000   0.97301575   -2.4002213   -2.4002213   -1.2532382  0.064455836   -2.4002213    1.1469831   466562 
  338000    0.9740956   -2.4021847   -2.4021847   -1.2538573  0.056233551   -2.4021847    1.1483274   466533 
  339000   0.97364652    -2.400423    -2.400423   -1.2525561  0.062655765    -2.400423    1.1478669   466505 
  340000    0.9738052   -2.4011934   -2.4011934   -1.2530681  0.058310826   -2.4011934    1.1481253   466476 
  341000   0.97356088    -2.401994    -2.401994   -1.2540879  0.062644237    -2.401994    1.1479061   466448 
  342000   0.97286408   -2.4015233   -2.4015233   -1.2543674  0.061067076   -2.4015233    1.1471559   466419 
  343000   0.97261223   -2.4009593   -2.4009593   -1.2540291  0.063220751   -2.4009593    1.1469302   466390 
  344000   0.97260407   -2.4004495   -2.4004495   -1.2534601  0.060586602   -2.4004495    1.1469895   466362 
  345000   0.97396105   -2.4017822   -2.4017822    -1.253121  0.065963429   -2.4017822    1.1486612   466333 
  346000   0.97261089   -2.4015899   -2.4015899   -1.2544522  0.055481585   -2.4015899    1.1471377   466305 
  347000   0.97333826   -2.4015419   -2.4015419   -1.2534749    0.0650213   -2.4015419     1.148067   466276 
  348000   0.97359845   -2.4006564   -2.4006564   -1.2522135  0.066802914   -2.4006564    1.1484429   466248 
  349000   0.97250813   -2.4003846   -2.4003846   -1.2531565  0.066049111   -2.4003846    1.1472281   466219 
  350000   0.97224099   -2.3997149   -2.3997149   -1.2527306  0.059312236   -2.3997149    1.1469843   466190 
  351000   0.97198052   -2.3990333   -2.3990333   -1.2522874  0.057728067   -2.3990333    1.1467459   466162 
  352000   0.97252223    -2.399868    -2.399868   -1.2524116  0.056183834    -2.399868    1.1474564   466133 
  353000   0.97082494   -2.3973858   -2.3973858   -1.2518632  0.058497249   -2.3973858    1.1455226   466105 
  354000   0.97322366   -2.3995307   -2.3995307   -1.2511063  0.057477237   -2.3995307    1.1484244   466076 
  355000    0.9711474   -2.3971224   -2.3971224   -1.2510792  0.059616767   -2.3971224    1.1460432   466048 
  356000   0.97174739   -2.3976792   -2.3976792   -1.2508565   0.06710807   -2.3976792    1.1468226   466019 
  357000   0.97285347   -2.3997781   -2.3997781   -1.2515786  0.065289586   -2.3997781    1.1481995   465990 
  358000   0.97242368   -2.3991515   -2.3991515   -1.2513903  0.061115005   -2.3991515    1.1477612   465962 
  359000   0.97304565    -2.398708    -2.398708   -1.2501412  0.061617553    -2.398708    1.1485668   465933 
  360000   0.97272185   -2.3990411   -2.3990411   -1.2507875  0.064054504   -2.3990411    1.1482536   465905 
  361000   0.97286523   -2.3987124   -2.3987124   -1.2502181  0.059646161   -2.3987124    1.1484943   465876 
  362000   0.97191768   -2.3982055   -2.3982055   -1.2507608  0.061166939   -2.3982055    1.1474447   465848 
  363000   0.97252268   -2.3984843   -2.3984843   -1.2502539  0.057739563   -2.3984843    1.1482304   465819 
  364000   0.97235122   -2.3986792   -2.3986792   -1.2505798  0.058949571   -2.3986792    1.1480994   465790 
  365000   0.97180933   -2.3984007   -2.3984007   -1.2508722  0.060030884   -2.3984007    1.1475286   465762 
  366000   0.97170816   -2.3990748   -2.3990748   -1.2515942  0.063090195   -2.3990748    1.1474806   465733 
  367000   0.97109759   -2.3983224   -2.3983224   -1.2514939   0.05759569   -2.3983224    1.1468285   465705 
  368000   0.97045125   -2.3971214   -2.3971214   -1.2509848  0.066338997   -2.3971214    1.1461366   465676 
  369000     0.971459    -2.397701    -2.397701   -1.2503053  0.063384048    -2.397701    1.1473957   465648 
  370000   0.97096063   -2.3972674   -2.3972674   -1.2503889    0.0634679   -2.3972674    1.1468785   465619 
  371000   0.96864411     -2.39505     -2.39505   -1.2508364  0.058908715     -2.39505    1.1442136   465590 
  372000   0.96986683   -2.3973524   -2.3973524   -1.2516256  0.055426325   -2.3973524    1.1457268   465562 
  373000   0.97126942   -2.3983759   -2.3983759   -1.2509207  0.056302563   -2.3983759    1.1474552   465533 
  374000   0.97172921   -2.3998516   -2.3998516   -1.2517841  0.059397517   -2.3998516    1.1480675   465505 
  375000    0.9703097   -2.3977633   -2.3977633   -1.2513015  0.060974968   -2.3977633    1.1464618   465476 
  376000   0.97351802   -2.4008854   -2.4008854   -1.2505636  0.060527845   -2.4008854    1.1503217   465448 
  377000   0.97293358   -2.4012948   -2.4012948    -1.251592  0.063515625   -2.4012948    1.1497028   465419 
  378000   0.97198782   -2.3996137   -2.3996137    -1.250957  0.067368748   -2.3996137    1.1486568   465390 
  379000   0.97114681   -2.3988933   -2.3988933   -1.2511613  0.062017532   -2.3988933     1.147732   465362 
  380000   0.96974296   -2.3965396   -2.3965396   -1.2503953  0.060731293   -2.3965396    1.1461443   465333 
  381000   0.96978726   -2.3973017   -2.3973017   -1.2510361  0.063165613   -2.3973017    1.1462656   465305 
  382000     0.969647   -2.3973846   -2.3973846   -1.2512133  0.067015319   -2.3973846    1.1461712   465276 
  383000    0.9703707   -2.3976693   -2.3976693   -1.2505736  0.065944399   -2.3976693    1.1470957   465248 
  384000   0.97007639   -2.3983325   -2.3983325   -1.2515132  0.060890615   -2.3983325    1.1468193   465219 
  385000   0.96967104   -2.3972495   -2.3972495   -1.2508379  0.065483395   -2.3972495    1.1464116   465190 
  386000   0.96953235   -2.3969582   -2.3969582   -1.2506416  0.060883832   -2.3969582    1.1463166   465162 
  387000   0.97032651   -2.3986617   -2.3986617   -1.2513347  0.062949189   -2.3986617    1.1473271   465133 
  388000   0.96906681    -2.397619    -2.397619   -1.2517124  0.056344108    -2.397619    1.1459066   465105 
  389000   0.96976992   -2.3976366   -2.3976366   -1.2508271  0.059232534   -2.3976366    1.1468095   465076 
  390000   0.97124156   -2.4005112   -2.4005112   -1.2518923  0.068632224   -2.4005112     1.148619   465048 
  391000   0.96943301   -2.3990067   -2.3990067   -1.2524551  0.059130959   -2.3990067    1.1465516   465019 
  392000    0.9677031   -2.3975683   -2.3975683   -1.2529913  0.065484919   -2.3975683     1.144577   464990 
  393000    0.9682464   -2.3982992   -2.3982992   -1.2530106  0.065777523   -2.3982992    1.1452886   464962 
  394000   0.96878067   -2.3975132   -2.3975132   -1.2515212   0.06082726   -2.3975132     1.145992   464933 
  395000   0.96801575   -2.3972128   -2.3972128   -1.2520566  0.062595884   -2.3972128    1.1451561   464905 
  396000   0.96978496   -2.3988617   -2.3988617    -1.251541  0.061204559   -2.3988617    1.1473207   464876 
  397000   0.96954905   -2.3998625   -2.3998625   -1.2527519  0.065375631   -2.3998625    1.1471107   464848 
  398000    0.9702435   -2.4007692   -2.4007692   -1.2527653  0.063386023   -2.4007692    1.1480039   464819 
  399000   0.96863241    -2.400289    -2.400289   -1.2541198  0.054523817    -2.400289    1.1461692   464790 
  400000    0.9695987   -2.4016815   -2.4016815   -1.2542999  0.058022226   -2.4016815    1.1473817   464762 
  401000   0.96745587    -2.399186    -2.399186   -1.2542686   0.06268445    -2.399186    1.1449174   464733 
  402000   0.96704369   -2.3984918   -2.3984918   -1.2539933  0.056764832   -2.3984918    1.1444986   464705 
  403000   0.96880208   -2.3990696   -2.3990696   -1.2524184  0.062204809   -2.3990696    1.1466512   464676 
  404000   0.96756093   -2.3987521   -2.3987521   -1.2535009  0.060662511   -2.3987521    1.1452512   464648 
  405000   0.96770343   -2.3996147   -2.3996147   -1.2541233  0.057141868   -2.3996147    1.1454914   464619 
  406000    0.9665441    -2.398563    -2.398563   -1.2543725  0.062330946    -2.398563    1.1441904   464590 
  407000   0.96744132   -2.3992538   -2.3992538   -1.2539322  0.057766946   -2.3992538    1.1453216   464562 
  408000   0.96853059   -2.4003099   -2.4003099   -1.2536272  0.056477795   -2.4003099    1.1466827   464533 
  409000   0.96674892   -2.3980239   -2.3980239   -1.2533816  0.064301163   -2.3980239    1.1446423   464505 
  410000   0.96596126   -2.3966114   -2.3966114   -1.2528302  0.060097852   -2.3966114    1.1437811   464476 
  411000   0.96634454   -2.3973719   -2.3973719   -1.2530679  0.058923078   -2.3973719     1.144304   464448 
  412000    0.9665505   -2.3983592   -2.3983592   -1.2537399   0.06303863   -2.3983592    1.1446193   464419 
  413000   0.96578397   -2.3980783   -2.3980783   -1.2542953  0.064344951   -2.3980783     1.143783   464390 
  414000   0.96664414   -2.4000081   -2.4000081   -1.2551374  0.061283852   -2.4000081    1.1448707   464362 
  415000   0.96862479   -2.4003796   -2.4003796   -1.2530913  0.064034027   -2.4003796    1.1472882   464333 
  416000    0.9688605   -2.4003061   -2.4003061   -1.2526695  0.058360454   -2.4003061    1.1476366   464305 
  417000   0.96615339   -2.3979425   -2.3979425    -1.253441  0.058968042   -2.3979425    1.1445015   464276 
  418000   0.96701353   -2.3992238   -2.3992238   -1.2536343  0.053991454   -2.3992238    1.1455895   464248 
  419000   0.96489729   -2.3960194   -2.3960194   -1.2528655  0.064038557   -2.3960194    1.1431538   464219 
  420000   0.96514769   -2.3974676   -2.3974676   -1.2539456  0.060692212   -2.3974676    1.1435219   464190 
  421000   0.96587044   -2.3976845   -2.3976845   -1.2532372  0.068309225   -2.3976845    1.1444473   464162 
  422000   0.96665489   -2.3985627   -2.3985627   -1.2531143  0.059221837   -2.3985627    1.1454483   464133 
  423000    0.9676336   -2.4006355   -2.4006355   -1.2539582   0.06275957   -2.4006355    1.1466772   464105 
  424000   0.96873439   -2.4007904   -2.4007904    -1.252737  0.065325895   -2.4007904    1.1480535   464076 
  425000   0.96551205   -2.3979002   -2.3979002   -1.2535965  0.063382363   -2.3979002    1.1443037   464048 
  426000   0.96575769   -2.3985629   -2.3985629   -1.2538965  0.060725617   -2.3985629    1.1446663   464019 
  427000     0.965415   -2.3979457   -2.3979457    -1.253614  0.064248085   -2.3979457    1.1443317   463990 
  428000    0.9669929   -2.3998599   -2.3998599   -1.2535887  0.063069246   -2.3998599    1.1462712   463962 
  429000   0.96589964   -2.3991353   -2.3991353   -1.2540885    0.0634381   -2.3991353    1.1450468   463933 
  430000    0.9675772   -2.4016597   -2.4016597   -1.2545549  0.056580399   -2.4016597    1.1471047   463905 
  431000   0.96478785   -2.3989591   -2.3989591   -1.2550897  0.058504396   -2.3989591    1.1438694   463876 
  432000   0.96451453   -2.3967914   -2.3967914    -1.253177  0.060116013   -2.3967914    1.1436143   463848 
  433000   0.96353074   -2.3964691   -2.3964691   -1.2539498  0.058582205   -2.3964691    1.1425193   463819 
  434000   0.96445841   -2.3965118   -2.3965118    -1.252821  0.056794528   -2.3965118    1.1436908   463790 
  435000   0.96301902   -2.3946191   -2.3946191   -1.2525662  0.060525753   -2.3946191    1.1420529   463762 
  436000   0.96419852   -2.3965842   -2.3965842   -1.2530611  0.056388125   -2.3965842    1.1435231   463733 
  437000   0.96544322   -2.3971426   -2.3971426   -1.2520742  0.060102874   -2.3971426    1.1450685   463705 
  438000   0.96447081   -2.3970672   -2.3970672   -1.2530805  0.058995163   -2.3970672    1.1439867   463676 
  439000   0.96328812   -2.3970793   -2.3970793   -1.2544264  0.060540242   -2.3970793    1.1426529   463648 
  440000   0.96561486   -2.3989978   -2.3989978   -1.2535133  0.058596587   -2.3989978    1.1454845   463619 
  441000   0.96374088   -2.3969595   -2.3969595   -1.2536265  0.063240714   -2.3969595     1.143333   463590 
  442000   0.96566403   -2.3988142   -2.3988142   -1.2531305  0.057314534   -2.3988142    1.1456837   463562 
  443000   0.96451171   -2.3984535   -2.3984535   -1.2540654  0.063171971   -2.3984535    1.1443881   463533 
  444000   0.96433444    -2.398975    -2.398975   -1.2547281  0.059663357    -2.398975    1.1442469   463505 
  445000   0.96528024   -2.3997317   -2.3997317   -1.2542908  0.057086411   -2.3997317    1.1454409   463476 
  446000    0.9637677   -2.3983835   -2.3983835   -1.2546684  0.060842656   -2.3983835    1.1437151   463448 
  447000   0.96447449   -2.3986499   -2.3986499   -1.2540245  0.059412613   -2.3986499    1.1446255   463419 
  448000   0.96500472   -2.3998459   -2.3998459   -1.2545194  0.062446077   -2.3998459    1.1453264   463390 
  449000    0.9626899   -2.3986861   -2.3986861    -1.256038  0.060038655   -2.3986861    1.1426481   463362 
  450000   0.96350316   -2.3998466   -2.3998466   -1.2561616  0.059552509   -2.3998466     1.143685   463333 
  451000   0.96278966   -2.3993625   -2.3993625   -1.2564554  0.062858963   -2.3993625    1.1429071   463305 
  452000   0.96148519    -2.397637    -2.397637    -1.256207  0.064307718    -2.397637      1.14143   463276 
  453000   0.96225414   -2.3973744   -2.3973744   -1.2549625  0.060037629   -2.3973744     1.142412   463248 
  454000   0.96331582   -2.3994197   -2.3994197   -1.2556757   0.06127483   -2.3994197     1.143744   463219 
  455000   0.96314285   -2.3989038   -2.3989038   -1.2552935   0.06110793   -2.3989038    1.1436102   463190 
  456000   0.96250693   -2.3990345   -2.3990345   -1.2561103   0.06326017   -2.3990345    1.1429242   463162 
  457000   0.96253448   -2.3980511   -2.3980511   -1.2550225  0.061360834   -2.3980511    1.1430285   463133 
  458000   0.96301289   -2.3977679   -2.3977679   -1.2541021  0.057516971   -2.3977679    1.1436658   463105 
  459000   0.96248638   -2.3983801   -2.3983801    -1.255268  0.054606108   -2.3983801    1.1431121   463076 
  460000   0.96190056   -2.3990059   -2.3990059   -1.2565205  0.053482183   -2.3990059    1.1424854   463048 
  461000   0.96096472   -2.3987717   -2.3987717   -1.2573263  0.053977304   -2.3987717    1.1414454   463019 
  462000   0.95986751   -2.3989411   -2.3989411   -1.2587275  0.057099631   -2.3989411    1.1402135   462990 
  463000   0.96002325   -2.3979975   -2.3979975     -1.25753  0.060206603   -2.3979975    1.1404675   462962 
  464000   0.96142552    -2.399261    -2.399261   -1.2570562  0.060385965    -2.399261    1.1422049   462933 
  465000   0.96206669   -2.4001322   -2.4001322   -1.2570964    0.0598167   -2.4001322    1.1430357   462905 
  466000   0.96213078   -2.4008473   -2.4008473   -1.2576638    0.0642404   -2.4008473    1.1431835   462876 
  467000    0.9628183   -2.4025947   -2.4025947   -1.2585251  0.062505925   -2.4025947    1.1440696   462848 
  468000   0.96029469   -2.3997669   -2.3997669   -1.2586245  0.053682101   -2.3997669    1.1411424   462819 
  469000    0.9589934   -2.3988638   -2.3988638   -1.2591963  0.057257694   -2.3988638    1.1396675   462790 
  470000   0.96085828   -2.4000752   -2.4000752   -1.2581224  0.056250169   -2.4000752    1.1419528   462762 
  471000   0.95957601   -2.3976613   -2.3976613    -1.257161   0.05757463   -2.3976613    1.1405003   462733 
  472000   0.96030659   -2.3991798   -2.3991798   -1.2577421  0.055431163   -2.3991798    1.1414377   462705 
  473000   0.95973859   -2.3983889   -2.3983889   -1.2575548  0.066273439   -2.3983889    1.1408341   462676 
  474000   0.96162786   -2.4010155   -2.4010155   -1.2578665  0.061597802   -2.4010155     1.143149   462648 
  475000   0.96191562    -2.400304    -2.400304   -1.2567412  0.057033756    -2.400304    1.1435628   462619 
  476000   0.96129066   -2.3997214   -2.3997214     -1.25683  0.063792625   -2.3997214    1.1428915   462590 
  477000   0.96077672   -2.4006005   -2.4006005   -1.2582509   0.06420555   -2.4006005    1.1423496   462562 
  478000   0.95827573   -2.3968787   -2.3968787   -1.2574313  0.063621134   -2.3968787    1.1394474   462533 
  479000   0.95966218   -2.3985599   -2.3985599   -1.2573949  0.056310317   -2.3985599     1.141165   462505 
  480000   0.95789937   -2.3971009   -2.3971009   -1.2579607  0.057934663   -2.3971009    1.1391402   462476 
  481000   0.96106941   -2.4013531   -2.4013531   -1.2583738  0.063249819   -2.4013531    1.1429793   462448 
  482000   0.96126747   -2.4016076   -2.4016076   -1.2583211    0.0531338   -2.4016076    1.1432865   462419 
  483000   0.96047812   -2.4011304   -2.4011304   -1.2587111  0.062730652   -2.4011304    1.1424193   462390 
  484000   0.96106659   -2.4021609   -2.4021609   -1.2589724  0.059176587   -2.4021609    1.1431885   462362 
  485000   0.95854806   -2.3998033   -2.3998033    -1.259539  0.057631167   -2.3998033    1.1402642   462333 
  486000    0.9614053   -2.4031127   -2.4031127   -1.2593803  0.057777696   -2.4031127    1.1437324   462305 
  487000   0.95926412   -2.4007437   -2.4007437   -1.2594869  0.058045136   -2.4007437    1.1412567   462276 
  488000   0.95992243   -2.4011432   -2.4011432   -1.2590341  0.054379731   -2.4011432    1.1421091   462248 
  489000   0.95877007   -2.4011747   -2.4011747   -1.2603651  0.063700294   -2.4011747    1.1408096   462219 
  490000   0.95867361   -2.4018757   -2.4018757   -1.2611093  0.057214016   -2.4018757    1.1407664   462190 
  491000   0.95849021     -2.40219     -2.40219   -1.2615727  0.051492838     -2.40219    1.1406173   462162 
  492000   0.95919369   -2.4028397   -2.4028397   -1.2613137  0.053082345   -2.4028397    1.1415261   462133 
  493000   0.96104307   -2.4048475   -2.4048475   -1.2610512  0.057043255   -2.4048475    1.1437963   462105 
  494000   0.96018582   -2.4043813   -2.4043813   -1.2615335  0.057420946   -2.4043813    1.1428477   462076 
  495000   0.95950591   -2.4047471   -2.4047471   -1.2626394  0.060909121   -2.4047471    1.1421077   462048 
  496000   0.95794357   -2.4039457   -2.4039457   -1.2636261  0.059983251   -2.4039457    1.1403196   462019 
  497000   0.95742833   -2.4028516   -2.4028516   -1.2630738  0.059567746   -2.4028516    1.1397778   461990 
  498000   0.95819049   -2.4032641   -2.4032641   -1.2625098   0.05328526   -2.4032641    1.1407543   461962 
  499000    0.9576109   -2.4035009   -2.4035009   -1.2633651  0.058578495   -2.4035009    1.1401358   461933 
  500000   0.96046155   -2.4056294   -2.4056294   -1.2620303  0.057375086   -2.4056294    1.1435991   461905 
  501000   0.95871159   -2.4032099   -2.4032099   -1.2616227  0.059985668   -2.4032099    1.1415872   461876 
  502000   0.95702299    -2.401227    -2.401227   -1.2615814  0.058315977    -2.401227    1.1396456   461848 
  503000   0.95472793   -2.3990796   -2.3990796   -1.2620956  0.058459579   -2.3990796    1.1369839   461819 
  504000    0.9565403   -2.3997317   -2.3997317   -1.2605179  0.061494216   -2.3997317    1.1392138   461790 
  505000   0.95704578   -2.4005268   -2.4005268   -1.2606418  0.055764493   -2.4005268     1.139885   461762 
  506000   0.95791814   -2.4022953   -2.4022953   -1.2612997   0.05587575   -2.4022953    1.1409956   461733 
  507000   0.95821713   -2.4023635   -2.4023635   -1.2609425  0.059694969   -2.4023635     1.141421   461705 
  508000   0.95620332   -2.3998921   -2.3998921   -1.2607984  0.064980352   -2.3998921    1.1390937   461676 
  509000   0.95544483   -2.3993808   -2.3993808   -1.2611217  0.062357359   -2.3993808    1.1382592   461648 
  510000   0.95819455   -2.4017815   -2.4017815   -1.2601747  0.061967574   -2.4017815    1.1416067   461619 
  511000   0.95631257    -2.399679    -2.399679   -1.2602429   0.05760399    -2.399679    1.1394361   461590 
  512000   0.95625376   -2.3996116   -2.3996116   -1.2601764  0.058188563   -2.3996116    1.1394351   461562 
  513000   0.95540774   -2.3982309   -2.3982309   -1.2597323    0.0558009   -2.3982309    1.1384986   461533 
  514000   0.95649916   -2.3990628   -2.3990628   -1.2591945  0.059289457   -2.3990628    1.1398683   461505 
  515000   0.95540637   -2.3987921   -2.3987921   -1.2601545  0.063151105   -2.3987921    1.1386376   461476 
  516000   0.95737389   -2.4024661   -2.4024661   -1.2614144  0.052089124   -2.4024661    1.1410517   461448 
  517000   0.95546117   -2.4000347   -2.4000347   -1.2611911  0.051094511   -2.4000347    1.1388436   461419 
  518000    0.9559893   -2.4008669   -2.4008669   -1.2613222   0.05611811   -2.4008669    1.1395447   461390 
  519000    0.9545385   -2.4001613   -2.4001613    -1.262277  0.054692441   -2.4001613    1.1378844   461362 
  520000   0.95461529   -2.4006962   -2.4006962   -1.2626488   0.06108482   -2.4006962    1.1380474   461333 
  521000    0.9550598   -2.3998934   -2.3998934    -1.261247  0.055225175   -2.3998934    1.1386465   461305 
  522000   0.95646859   -2.4033198   -2.4033198    -1.262922  0.055759237   -2.4033198    1.1403978   461276 
  523000    0.9564607   -2.4026815   -2.4026815   -1.2622239  0.054436971   -2.4026815    1.1404576   461248 
  524000   0.95421443   -2.4008246   -2.4008246   -1.2629739  0.059453166   -2.4008246    1.1378507   461219 
  525000   0.95402407   -2.4008177   -2.4008177   -1.2631224  0.063524831   -2.4008177    1.1376953   461190 
  526000   0.95372379    -2.401129    -2.401129   -1.2637228   0.06022017    -2.401129    1.1374062   461162 
  527000   0.95484682    -2.401058    -2.401058   -1.2622408    0.0567835    -2.401058    1.1388172   461133 
  528000   0.95546495   -2.4025409   -2.4025409   -1.2629173  0.055861706   -2.4025409    1.1396236   461105 
  529000   0.95365337   -2.4005855   -2.4005855   -1.2630511   0.05706204   -2.4005855    1.1375344   461076 
  530000   0.95440613   -2.4013404   -2.4013404    -1.262839   0.05214373   -2.4013404    1.1385014   461048 
  531000   0.95468328   -2.4017851   -2.4017851   -1.2628815   0.05418939   -2.4017851    1.1389037   461019 
  532000   0.95404814   -2.4006259   -2.4006259   -1.2624083  0.053631713   -2.4006259    1.1382176   460990 
  533000   0.95405779    -2.400394    -2.400394   -1.2620958  0.055606262    -2.400394    1.1382982   460962 
  534000   0.95229625   -2.3988412   -2.3988412   -1.2625732   0.05999276   -2.3988412     1.136268   460933 
  535000   0.95298017   -2.3983054   -2.3983054   -1.2611523  0.056732051   -2.3983054    1.1371531   460905 
  536000   0.95306862   -2.3988246   -2.3988246   -1.2614944  0.062893513   -2.3988246    1.1373302   460876 
  537000   0.95324901   -2.4000726   -2.4000726    -1.262458  0.053193898   -2.4000726    1.1376146   460848 
  538000   0.95320912   -2.3987265   -2.3987265   -1.2610879  0.058360607   -2.3987265    1.1376386   460819 
  539000   0.95366888   -2.3992792   -2.3992792   -1.2610202  0.058207694   -2.3992792    1.1382589   460790 
  540000   0.95302395   -2.3986237   -2.3986237   -1.2610654  0.064465128   -2.3986237    1.1375583   460762 
  541000   0.95622584   -2.4017574   -2.4017574   -1.2603054  0.050504403   -2.4017574     1.141452   460733 
  542000   0.95452181   -2.4012264   -2.4012264   -1.2617393  0.057656392   -2.4012264    1.1394871   460705 
  543000   0.95301286   -2.3991681   -2.3991681   -1.2614107  0.055098606   -2.3991681    1.1377574   460676 
  544000   0.95257081    -2.398873    -2.398873   -1.2615742  0.055237749    -2.398873    1.1372988   460648 
  545000   0.95204244   -2.3968442   -2.3968442   -1.2601046  0.065334935   -2.3968442    1.1367395   460619 
  546000   0.95142419    -2.396643    -2.396643   -1.2605701  0.059064094    -2.396643    1.1360729   460590 
  547000   0.95228873   -2.3970717   -2.3970717   -1.2598974  0.059228382   -2.3970717    1.1371743   460562 
  548000   0.95392006   -2.3995522   -2.3995522   -1.2603581  0.062733179   -2.3995522    1.1391941   460533 
  549000   0.95251686   -2.3970762   -2.3970762   -1.2594886  0.060890287   -2.3970762    1.1375875   460505 
  550000   0.95264802    -2.397514    -2.397514   -1.2596982  0.060901049    -2.397514    1.1378158   460476 
  551000   0.95314147   -2.3971707   -2.3971707   -1.2586963  0.057027752   -2.3971707    1.1384744   460448 
  552000   0.95233701   -2.3973759   -2.3973759   -1.2597908  0.055794523   -2.3973759    1.1375852   460419 
  553000   0.95180171   -2.3965739   -2.3965739   -1.2595565  0.059435393   -2.3965739    1.1370174   460390 
  554000   0.95132246   -2.3962029   -2.3962029   -1.2596889  0.054699498   -2.3962029     1.136514   460362 
  555000   0.95085398   -2.3978134   -2.3978134   -1.2617876  0.055843364   -2.3978134    1.1360259   460333 
  556000   0.95155386   -2.3971685   -2.3971685   -1.2602373  0.064065757   -2.3971685    1.1369312   460305 
  557000   0.95180372   -2.3975023   -2.3975023   -1.2602009  0.058411781   -2.3975023    1.1373014   460276 
  558000   0.95240418   -2.3988942   -2.3988942   -1.2608061  0.060527945   -2.3988942    1.1380881   460248 
  559000   0.95393165   -2.4003667   -2.4003667   -1.2603815  0.056119043   -2.4003667    1.1399852   460219 
  560000   0.95347796   -2.3999428   -2.3999428   -1.2604279  0.063147437   -2.3999428    1.1395148   460190 
  561000   0.95263375   -2.3985161   -2.3985161   -1.2599409  0.058414893   -2.3985161    1.1385752   460162 
  562000   0.95216955   -2.3994073   -2.3994073   -1.2613152  0.059902466   -2.3994073    1.1380921   460133 
  563000   0.95086194   -2.3967824   -2.3967824   -1.2601841  0.057159167   -2.3967824    1.1365983   460105 
  564000   0.94913094   -2.3944762   -2.3944762   -1.2598755  0.064148488   -2.3944762    1.1346007   460076 
  565000   0.94864543   -2.3952014   -2.3952014    -1.261112  0.059398048   -2.3952014    1.1340893   460048 
  566000   0.95085637   -2.3991347   -2.3991347   -1.2623305  0.060143574   -2.3991347    1.1368042   460019 
  567000   0.95126607   -2.3997912   -2.3997912   -1.2624255  0.061835023   -2.3997912    1.1373657   459990 
  568000   0.95183167   -2.4003876   -2.4003876   -1.2622764  0.056232161   -2.4003876    1.1381112   459962 
  569000   0.94999879   -2.3989083   -2.3989083   -1.2629171  0.059947613   -2.3989083    1.1359912   459933 
  570000   0.95016813   -2.3993345   -2.3993345   -1.2630716    0.0568767   -2.3993345    1.1362629   459905 
  571000   0.95133847   -2.4011694   -2.4011694   -1.2634352  0.058558106   -2.4011694    1.1377342   459876 
  572000   0.94897681   -2.3992748   -2.3992748   -1.2642958  0.056689155   -2.3992748    1.1349789   459848 
  573000   0.94976484   -2.4001038   -2.4001038   -1.2641107  0.055448233   -2.4001038    1.1359931   459819 
  574000   0.95189545   -2.4033708   -2.4033708   -1.2647575  0.059082527   -2.4033708    1.1386133   459790 
  575000   0.95053182   -2.4020868   -2.4020868   -1.2650354  0.058362886   -2.4020868    1.1370514   459762 
  576000   0.95052839   -2.4018706   -2.4018706   -1.2647516  0.058922858   -2.4018706     1.137119   459733 
  577000   0.95018022   -2.4008545   -2.4008545   -1.2640828   0.05736398   -2.4008545    1.1367717   459705 
  578000   0.95265239   -2.4034914   -2.4034914   -1.2636901  0.058813392   -2.4034914    1.1398013   459676 
  579000    0.9506864   -2.4020265   -2.4020265   -1.2645081  0.061964108   -2.4020265    1.1375183   459648 
  580000   0.94866122   -2.4014202   -2.4014202   -1.2662534  0.055116413   -2.4014202    1.1351668   459619 
  581000   0.94902379   -2.4017269   -2.4017269   -1.2660546  0.055647703   -2.4017269    1.1356723   459590 
  582000   0.94916373    -2.402349    -2.402349     -1.26644  0.051539053    -2.402349     1.135909   459562 
  583000   0.94853536   -2.4012095   -2.4012095   -1.2659809  0.054160341   -2.4012095    1.1352286   459533 
  584000   0.95125307    -2.404328    -2.404328   -1.2657774  0.058506673    -2.404328    1.1385506   459505 
  585000   0.95087074   -2.4038485   -2.4038485   -1.2656837  0.057766984   -2.4038485    1.1381648   459476 
  586000   0.95169398   -2.4040145   -2.4040145   -1.2647949  0.057147629   -2.4040145    1.1392196   459448 
  587000   0.95146756   -2.4041775   -2.4041775    -1.265157  0.060070952   -2.4041775    1.1390205   459419 
  588000    0.9486273   -2.4008557   -2.4008557   -1.2651636  0.061662422   -2.4008557     1.135692   459390 
  589000   0.95124711    -2.403556    -2.403556   -1.2646581   0.06129232    -2.403556    1.1388979   459362 
  590000   0.95048651   -2.4026013   -2.4026013   -1.2645422  0.055045366   -2.4026013    1.1380591   459333 
  591000   0.94772756   -2.3994694   -2.3994694   -1.2646445  0.064593049   -2.3994694    1.1348249   459305 
  592000   0.94762411   -2.4008531   -2.4008531   -1.2660805  0.055682321   -2.4008531    1.1347726   459276 
  593000    0.9480561   -2.4005586   -2.4005586   -1.2651994  0.057560058   -2.4005586    1.1353592   459248 
  594000   0.94782859   -2.4016577   -2.4016577   -1.2664993    0.0549029   -2.4016577    1.1351584   459219 
  595000   0.94777549   -2.4014506   -2.4014506   -1.2662842   0.05614972   -2.4014506    1.1351665   459190 
  596000   0.94681291   -2.4009641   -2.4009641   -1.2668814   0.06163917   -2.4009641    1.1340827   459162 
  597000   0.94797264   -2.4030775   -2.4030775   -1.2675339  0.058235646   -2.4030775    1.1355436   459133 
  598000   0.94728568   -2.4011345   -2.4011345   -1.2663446  0.062269842   -2.4011345    1.1347899   459105 
  599000   0.94937542    -2.402781    -2.402781   -1.2654159  0.062262777    -2.402781    1.1373651   459076 
  600000   0.95060708   -2.4049143   -2.4049143   -1.2660042  0.054965509   -2.4049143    1.1389101   459048 
  601000   0.94849193      -2.4013      -2.4013   -1.2648522  0.062405569      -2.4013    1.1364478   459019 
  602000   0.94983939   -2.4033111   -2.4033111    -1.265177  0.055006999   -2.4033111    1.1381342   458990 
  603000   0.94887978    -2.402461    -2.402461   -1.2654073  0.057523883    -2.402461    1.1370537   458962 
  604000   0.94839337   -2.4026352   -2.4026352   -1.2660926  0.055578655   -2.4026352    1.1365426   458933 
  605000   0.94699767   -2.4004773   -2.4004773    -1.265538  0.057053245   -2.4004773    1.1349393   458905 
  606000   0.94653377   -2.4001776   -2.4001776   -1.2657227  0.055158981   -2.4001776     1.134455   458876 
  607000   0.94611175   -2.3993986   -2.3993986   -1.2653802  0.057209348   -2.3993986    1.1340184   458848 
  608000   0.94690521   -2.3996835   -2.3996835   -1.2646423  0.054631852   -2.3996835    1.1350412   458819 
  609000   0.94618639   -2.4007064   -2.4007064   -1.2664552  0.057738702   -2.4007064    1.1342512   458790 
  610000   0.94611312   -2.4005066   -2.4005066    -1.266274  0.056991957   -2.4005066    1.1342326   458762 
  611000   0.94691669   -2.4018077   -2.4018077     -1.26654  0.065755995   -2.4018077    1.1352677   458733 
  612000   0.94833163   -2.4031858   -2.4031858   -1.2661523  0.056314121   -2.4031858    1.1370335   458705 
  613000   0.94761614     -2.40244     -2.40244   -1.2661925  0.056200107     -2.40244    1.1362475   458676 
  614000   0.94771362   -2.4017951   -2.4017951   -1.2653614  0.055619641   -2.4017951    1.1364337   458648 
  615000    0.9478803   -2.4017808   -2.4017808   -1.2650754  0.069067719   -2.4017808    1.1367055   458619 
  616000   0.94701569    -2.402239    -2.402239   -1.2664986  0.057677971    -2.402239    1.1357405   458590 
  617000   0.94593067   -2.4011324   -2.4011324   -1.2666239  0.058164762   -2.4011324    1.1345085   458562 
  618000   0.94594885    -2.400404    -2.400404   -1.2658019  0.055461956    -2.400404     1.134602   458533 
  619000   0.94500735   -2.4000919   -2.4000919     -1.26655  0.059673031   -2.4000919     1.133542   458505 
  620000   0.94616701    -2.400772    -2.400772   -1.2657672  0.061242121    -2.400772    1.1350048   458476 
  621000   0.94645595   -2.4032415   -2.4032415   -1.2678207  0.060309551   -2.4032415    1.1354207   458448 
  622000    0.9468209   -2.4035592   -2.4035592   -1.2676288   0.05922415   -2.4035592    1.1359304   458419 
  623000   0.94686827   -2.4029909   -2.4029909   -1.2669318  0.059250397   -2.4029909    1.1360591   458390 
  624000   0.94674197   -2.4026373   -2.4026373   -1.2666604  0.061346872   -2.4026373     1.135977   458362 
  625000   0.94812421   -2.4039467   -2.4039467   -1.2662393  0.053850632   -2.4039467    1.1377075   458333 
  626000   0.94783772   -2.4045563   -2.4045563   -1.2671232  0.056671023   -2.4045563    1.1374332   458305 
  627000   0.94447916   -2.4017711   -2.4017711   -1.2682966  0.061513846   -2.4017711    1.1334745   458276 
  628000   0.94348938   -2.3992858   -2.3992858   -1.2669299  0.056288344   -2.3992858    1.1323559   458248 
  629000    0.9437297   -2.4001096   -2.4001096   -1.2673936  0.053032192   -2.4001096     1.132716   458219 
  630000   0.94562745   -2.4025274   -2.4025274   -1.2674617  0.057269623   -2.4025274    1.1350656   458190 
  631000   0.94498691    -2.402228    -2.402228   -1.2678619  0.064684707    -2.402228    1.1343661   458162 
  632000   0.94580917   -2.4019359   -2.4019359    -1.266511  0.058739319   -2.4019359     1.135425   458133 
  633000   0.94502928   -2.4021345   -2.4021345   -1.2675764   0.05577248   -2.4021345    1.1345581   458105 
  634000   0.94351701   -2.4011455   -2.4011455   -1.2683312  0.054576788   -2.4011455    1.1328142   458076 
  635000   0.94509075   -2.4040948   -2.4040948   -1.2693217  0.054226225   -2.4040948    1.1347731   458048 
  636000   0.94550118    -2.403636    -2.403636   -1.2682982  0.060217455    -2.403636    1.1353378   458019 
  637000   0.94535091   -2.4026224   -2.4026224   -1.2673932  0.060336151   -2.4026224    1.1352292   457990 
  638000   0.94427746   -2.4019596   -2.4019596   -1.2679501  0.051462884   -2.4019596    1.1340095   457962 
  639000   0.94385037   -2.4006805   -2.4006805   -1.2671122  0.053575614   -2.4006805    1.1335683   457933 
  640000   0.94375399   -2.4012331   -2.4012331   -1.2677112  0.061531954   -2.4012331    1.1335219   457905 
  641000   0.94355931    -2.401535    -2.401535   -1.2681752  0.062826784    -2.401535    1.1333599   457876 
  642000   0.94510615   -2.4015177   -2.4015177   -1.2662305  0.056441254   -2.4015177    1.1352873   457848 
  643000   0.94527421   -2.4022814   -2.4022814   -1.2667203  0.060422494   -2.4022814    1.1355611   457819 
  644000   0.94425804   -2.4017446   -2.4017446   -1.2673324  0.062983212   -2.4017446    1.1344122   457790 
  645000   0.94352249   -2.4004617   -2.4004617   -1.2668638  0.059691927   -2.4004617    1.1335979   457762 
  646000   0.94381911   -2.4006942   -2.4006942   -1.2666682  0.054667521   -2.4006942    1.1340261   457733 
  647000    0.9421323   -2.4001199   -2.4001199   -1.2680514  0.055739978   -2.4001199    1.1320686   457705 
  648000   0.94347237   -2.4004545   -2.4004545   -1.2667038  0.058213368   -2.4004545    1.1337507   457676 
  649000   0.94340307   -2.4004301   -2.4004301   -1.2666934  0.059387691   -2.4004301    1.1337367   457648 
  650000   0.94369079   -2.4005573   -2.4005573    -1.266403   0.06024205   -2.4005573    1.1341544   457619 
  651000   0.94313353    -2.400425    -2.400425   -1.2668685  0.060044542    -2.400425    1.1335565   457590 
  652000   0.94315922   -2.4012139   -2.4012139   -1.2675572  0.057704854   -2.4012139    1.1336567   457562 
  653000   0.94106725   -2.4001638   -2.4001638   -1.2689499  0.054441609   -2.4001638    1.1312139   457533 
  654000   0.94040825   -2.3993536   -2.3993536   -1.2688626  0.055235749   -2.3993536    1.1304909   457505 
  655000   0.94205476    -2.401458    -2.401458   -1.2689159  0.053244549    -2.401458    1.1325421   457476 
  656000   0.94230868   -2.4012429   -2.4012429   -1.2683263  0.058951827   -2.4012429    1.1329166   457448 
  657000   0.94436932   -2.4043177   -2.4043177   -1.2688516  0.056014886   -2.4043177    1.1354661   457419 
  658000   0.94120863   -2.4026778   -2.4026778   -1.2709402  0.056724262   -2.4026778    1.1317376   457390 
  659000   0.94160927   -2.4053075   -2.4053075   -1.2730189  0.057218069   -2.4053075    1.1322886   457362 
  660000   0.93901663   -2.4023459   -2.4023459   -1.2731034  0.059045741   -2.4023459    1.1292426   457333 
  661000   0.94100587    -2.404448    -2.404448   -1.2727439  0.056379682    -2.404448    1.1317041   457305 
  662000   0.94055081   -2.4045778   -2.4045778   -1.2733493  0.057025635   -2.4045778    1.1312285   457276 
  663000   0.94088211   -2.4038331   -2.4038331   -1.2721367  0.058005302   -2.4038331    1.1316963   457248 
[...]
29837000 0.00028582595 1.570888e-06 1.570888e-06 0.0014341899 7.9441247e-05 1.570888e-06  0.001432619   109728 
29838000 0.00028613944            0            0 0.0014341902 5.2618627e-05            0 0.0014341902   109728 
29839000 0.00028597931 8.0239367e-07 8.0239367e-07   0.00143419 7.1803089e-05 8.0239367e-07 0.0014333876   109728 
29840000 0.00028495339 5.9448178e-06 5.9448178e-06 0.0014341903 0.00014661128 5.9448178e-06 0.0014282455   109728 
29841000 0.0002861295 4.9932461e-08 4.9932461e-08 0.0014341903 5.6051624e-05 4.9932461e-08 0.0014341404   109728 
29842000 0.00028613946            0            0 0.0014341903 5.2619757e-05            0 0.0014341903   109728 
29843000 0.00028590835 1.1583348e-06 1.1583348e-06 0.0014341903 8.188226e-05 1.1583348e-06  0.001433032   109728 
29844000 0.00028515013 4.9586732e-06 4.9586732e-06 0.0014341903 0.00011613864 4.9586732e-06 0.0014292316   109728 
29845000 0.00028613941            0            0 0.0014341901 5.120151e-05            0 0.0014341901   109728 
29846000 0.00028613941            0            0 0.0014341901 5.120151e-05            0 0.0014341901   109728 
29847000 0.00028613941            0            0 0.0014341901 5.120151e-05            0 0.0014341901   109728 
29848000 0.00028613942            0            0 0.0014341901 5.1203805e-05            0 0.0014341901   109728 
29849000 0.00028577348 1.8340024e-06 1.8340024e-06   0.00143419 9.9438252e-05 1.8340024e-06  0.001432356   109728 
29850000 0.00028518529 4.7683004e-06 4.7683004e-06 0.0014341761 0.00010941938 4.7683004e-06 0.0014294078   109728 
29851000 0.00028613634 1.3572555e-09 1.3572555e-09 0.0014341761 5.2634048e-05 1.3572555e-09 0.0014341747   109728 
29852000 0.00028607055 3.8699377e-07 3.8699377e-07 0.0014342319 6.4824885e-05 3.8699377e-07 0.0014338449   109728 
29853000 0.00028601894 6.4578323e-07 6.4578323e-07 0.0014342321 6.676547e-05 6.4578323e-07 0.0014335863   109728 
29854000 0.00028529325 4.2828637e-06 4.2828637e-06 0.0014342318 0.00012285303 4.2828637e-06  0.001429949   109728 
29855000 0.00028614776            0            0 0.0014342319 5.1922728e-05            0 0.0014342319   109728 
29856000 0.00028266309 1.3016724e-05 1.3016724e-05 0.0014297828 0.00033193987 1.3016724e-05  0.001416766   109728 
29857000 0.00028615123            0            0 0.0014342493 5.075957e-05            0 0.0014342493   109728 
29858000 0.0002861513            0            0 0.0014342497 5.1204472e-05            0 0.0014342497   109728 
29859000 0.0002861513            0            0 0.0014342497 5.1204472e-05            0 0.0014342497   109728 
29860000 0.0002861513            0            0 0.0014342497 5.1204472e-05            0 0.0014342497   109728 
29861000 0.00028615304            0            0 0.0014342584 5.1171843e-05            0 0.0014342584   109728 
29862000 0.00028318013 1.4900582e-05 1.4900582e-05 0.0014342582 0.00025666403 1.4900582e-05 0.0014193576   109728 
29863000 0.0002860036 7.4931744e-07 7.4931744e-07 0.0014342587 7.6837516e-05 7.4931744e-07 0.0014335094   109728 
29864000 0.00028613816 7.4903248e-08 7.4903248e-08 0.0014342587 5.8308393e-05 7.4903248e-08 0.0014341838   109728 
29865000 0.00028614651 3.3117044e-08 3.3117044e-08 0.0014342588 5.5621417e-05 3.3117044e-08 0.0014342257   109728 
29866000 0.00028596313 9.5231221e-07 9.5231221e-07 0.0014342588  7.43191e-05 9.5231221e-07 0.0014333065   109728 
29867000 0.00028615315            0            0 0.0014342589 5.2817002e-05            0 0.0014342589   109728 
29868000 0.00028610711 2.3082195e-07 2.3082195e-07  0.001434259 6.1326219e-05 2.3082195e-07 0.0014340282   109728 
29869000 0.00028615313            0            0 0.0014342589 5.2739601e-05            0 0.0014342589   109728 
29870000 0.00028486086 6.476697e-06 6.476697e-06 0.0014342584 0.00013528631 6.476697e-06 0.0014277817   109728 
29871000 0.00028259238 1.7846548e-05 1.7846548e-05 0.0014342582 0.00026016258 1.7846548e-05 0.0014164117   109728 
29872000 0.00028552541 3.1461546e-06 3.1461546e-06 0.0014342587 0.00010505075 3.1461546e-06 0.0014311126   109728 
29873000 0.00028601809 6.7665589e-07 6.7665589e-07 0.0014342587 6.8090393e-05 6.7665589e-07  0.001433582   109728 
29874000 0.00028589602 1.2889922e-06 1.2889922e-06 0.0014342592 8.1924401e-05 1.2889922e-06 0.0014329702   109728 
29875000 0.00028593109 1.1130105e-06 1.1130105e-06 0.0014342589 7.5108545e-05 1.1130105e-06 0.0014331459   109728 
29876000 0.00028615317            0            0  0.001434259 5.2369727e-05            0  0.001434259   109728 
29877000 0.00028574103  2.06567e-06  2.06567e-06  0.001434259 8.2764782e-05  2.06567e-06 0.0014321933   109728 
29878000 0.00028615312            0            0 0.0014342588 5.162779e-05            0 0.0014342588   109728 
29879000 0.00028615312            0            0 0.0014342588 5.162779e-05            0 0.0014342588   109728 
29880000 0.00028488644 6.3487374e-06 6.3487374e-06 0.0014342587 0.00012867847 6.3487374e-06   0.00142791   109728 
29881000 0.00028588282 1.3543852e-06 1.3543852e-06 0.0014342584 7.6711363e-05 1.3543852e-06  0.001432904   109728 
29882000 0.00028591199 1.2081325e-06 1.2081325e-06 0.0014342583 7.4623905e-05 1.2081325e-06 0.0014330502   109728 
29883000 0.00028615304            0            0 0.0014342584 5.0830395e-05            0 0.0014342584   109728 
29884000 0.00028615505            0            0 0.0014342685 5.074409e-05            0 0.0014342685   109728 
29885000 0.00028612877 1.3194106e-07 1.3194106e-07 0.0014342687 5.6955918e-05 1.3194106e-07 0.0014341367   109728 
29886000 0.00028419119 9.8428106e-06 9.8428106e-06  0.001434268 0.00018120629 9.8428106e-06 0.0014244252   109728 
29887000 0.00028613681 9.0977963e-08 9.0977963e-08 0.0014342681 5.5015984e-05 9.0977963e-08 0.0014341771   109728 
29888000 0.00028537547 3.9065144e-06 3.9065144e-06 0.0014342676 0.0001225513 3.9065144e-06 0.0014303611   109728 
29889000 0.00028602103 6.7104612e-07 6.7104612e-07 0.0014342678 7.1162445e-05 6.7104612e-07 0.0014335967   109728 
29890000 0.00028582374 1.6597847e-06 1.6597847e-06 0.0014342677 8.2014776e-05 1.6597847e-06 0.0014326079   109728 
29891000 0.00028578774 1.8428875e-06 1.8428875e-06 0.0014342703 8.4431217e-05 1.8428875e-06 0.0014324274   109728 
29892000 0.00028587894 1.385961e-06 1.385961e-06 0.0014342705 8.502739e-05 1.385961e-06 0.0014328845   109728 
29893000 0.00028596993 9.2981154e-07 9.2981154e-07 0.0014342704 6.8157294e-05 9.2981154e-07 0.0014333406   109728 
29894000 0.00028607465 4.0517452e-07 4.0517452e-07 0.0014342706 6.4894806e-05 4.0517452e-07 0.0014338655   109728 
29895000 0.00028560317 2.7683758e-06 2.7683758e-06 0.0014342707 9.0650833e-05 2.7683758e-06 0.0014315024   109728 
29896000 0.00028594491 1.0557221e-06 1.0557221e-06 0.0014342709 6.925073e-05 1.0557221e-06 0.0014332152   109728 
29897000 0.00028612048 1.5999588e-07 1.5999588e-07 0.0014342552 5.795352e-05 1.5999588e-07 0.0014340952   109728 
29898000 0.0002861264 1.2995542e-07 1.2995542e-07 0.0014342548 5.650307e-05 1.2995542e-07 0.0014341249   109728 
29899000 0.00028470596 7.2491425e-06 7.2491425e-06 0.0014342545 0.00013408094 7.2491425e-06 0.0014270053   109728 
29900000 0.00028493441 4.1742464e-06 4.1742464e-06 0.0014323246 0.00020734159 4.1742464e-06 0.0014281504   109728 
29901000 0.00028615623            0            0 0.0014342744 4.8687004e-05            0 0.0014342744   109728 
29902000 0.00028448022 8.4008334e-06 8.4008334e-06 0.0014342747 0.00014287074 8.4008334e-06 0.0014258739   109728 
29903000 0.00028605907 4.8712812e-07 4.8712812e-07 0.0014342745 6.9096977e-05 4.8712812e-07 0.0014337874   109728 
29904000 0.00028545142 3.5323145e-06 3.5323145e-06 0.0014342741 9.891841e-05 3.5323145e-06 0.0014307417   109728 
29905000 0.00028540079 3.7855357e-06 3.7855357e-06 0.0014342735 0.00012263237 3.7855357e-06  0.001430488   109728 
29906000 0.00028554429 3.0660802e-06 3.0660802e-06 0.0014342733 9.8081737e-05 3.0660802e-06 0.0014312072   109728 
29907000 0.00028615588 6.6274707e-10 6.6274707e-10 0.0014342733 5.1501063e-05 6.6274707e-10 0.0014342726   109728 
29908000 0.00028559964 2.7886066e-06 2.7886066e-06 0.0014342732 9.2919451e-05 2.7886066e-06 0.0014314846   109728 
29909000 0.0002855918 2.828005e-06 2.828005e-06 0.0014342733 8.5481718e-05 2.828005e-06 0.0014314453   109728 
29910000 0.00028574416 2.0637913e-06 2.0637913e-06 0.0014342728 8.3960554e-05 2.0637913e-06  0.001432209   109728 
29911000 0.00028586153 1.4751738e-06 1.4751738e-06 0.0014342725 8.6543635e-05 1.4751738e-06 0.0014327973   109728 
29912000 0.00028505443 5.5204143e-06 5.5204143e-06 0.0014342724 0.0001208936 5.5204143e-06 0.0014287519   109728 
29913000 0.00028508431 5.3699055e-06 5.3699055e-06 0.0014342716 0.00012864935 5.3699055e-06 0.0014289017   109728 
29914000 0.00028615568            0            0 0.0014342716 5.0445217e-05            0 0.0014342716   109728 
29915000 0.0002857409 2.0787094e-06 2.0787094e-06 0.0014342714 8.3345094e-05 2.0787094e-06 0.0014321927   109728 
29916000 0.00028559359 2.8172462e-06 2.8172462e-06 0.0014342716 9.4095123e-05 2.8172462e-06 0.0014314543   109728 
29917000 0.00028612795 1.3865427e-07 1.3865427e-07 0.0014342713 5.9490634e-05 1.3865427e-07 0.0014341326   109728 
29918000 0.00028615559            0            0 0.0014342712 5.131148e-05            0 0.0014342712   109728 
29919000 0.00028504179 5.5826398e-06 5.5826398e-06 0.0014342712 0.00012920619 5.5826398e-06 0.0014286886   109728 
29920000 0.00028493775 6.1040592e-06 6.1040592e-06 0.0014342712 0.00012670779 6.1040592e-06 0.0014281671   109728 
29921000 0.0002861552 1.8019978e-09 1.8019978e-09 0.0014342711 5.1548279e-05 1.8019978e-09 0.0014342693   109728 
29922000 0.00028475296 7.0303713e-06 7.0303713e-06 0.0014342713 0.00012162334 7.0303713e-06 0.0014272409   109728 
29923000 0.0002861556            0            0 0.0014342713 5.1034926e-05            0 0.0014342713   109728 
29924000 0.00028604951 5.2486995e-07 5.2486995e-07 0.0014342644 6.2981266e-05 5.2486995e-07 0.0014337395   109728 
29925000 0.00028615424            0            0 0.0014342644 5.0846909e-05            0 0.0014342644   109728 
29926000 0.00028615201 1.1133728e-08 1.1133728e-08 0.0014342644 5.258905e-05 1.1133728e-08 0.0014342532   109728 
29927000 0.00028598475 8.4928793e-07 8.4928793e-07 0.0014342642 7.2031162e-05 8.4928793e-07 0.0014334149   109728 
29928000 0.00028563343 2.5960602e-06 2.5960602e-06 0.0014342501 9.8980479e-05 2.5960602e-06  0.001431654   109728 
29929000 0.00028614115 5.1304981e-08 5.1304981e-08 0.0014342501 5.5014218e-05 5.1304981e-08 0.0014341988   109728 
29930000 0.00028612943 1.1007645e-07 1.1007645e-07 0.0014342502 5.7091747e-05 1.1007645e-07 0.0014341401   109728 
29931000 0.00028583866 1.5672477e-06 1.5672477e-06 0.0014342499 8.5106991e-05 1.5672477e-06 0.0014326827   109728 
29932000   0.00028527 4.4179763e-06 4.4179763e-06 0.0014342504 0.00012576094 4.4179763e-06 0.0014298324   109728 
29933000 0.00028611079 2.0361864e-07 2.0361864e-07 0.0014342502 5.9622575e-05 2.0361864e-07 0.0014340466   109728 
29934000 0.00028615141            0            0 0.0014342502 5.2501184e-05            0 0.0014342502   109728 
29935000 0.00028615141            0            0 0.0014342502 5.2501184e-05            0 0.0014342502   109728 
29936000 0.00028507634 5.3883932e-06 5.3883932e-06 0.0014342502 0.00012385167 5.3883932e-06 0.0014288618   109728 
29937000 0.00028599687 7.7451592e-07 7.7451592e-07 0.0014342502 6.7317831e-05 7.7451592e-07 0.0014334756   109728 
29938000 0.00028472326 7.1581005e-06 7.1581005e-06 0.0014342502 0.00015315037 7.1581005e-06 0.0014270921   109728 
29939000 0.00028615143            0            0 0.0014342503 5.1815841e-05            0 0.0014342503   109728 
29940000 0.00028601346 6.913523e-07 6.913523e-07 0.0014342502 6.7564561e-05 6.913523e-07 0.0014335588   109728 
29941000 0.0002861189 1.6279383e-07 1.6279383e-07 0.0014342501 6.0586216e-05 1.6279383e-07 0.0014340873   109728 
29942000 0.00028610326 2.4142304e-07 2.4142304e-07 0.0014342503 6.2665627e-05 2.4142304e-07 0.0014340089   109728 
29943000 0.0002861238 1.3848844e-07 1.3848844e-07 0.0014342503 5.7930117e-05 1.3848844e-07 0.0014341118   109728 
29944000 0.00028598346 8.4189816e-07 8.4189816e-07 0.0014342503 7.1558565e-05 8.4189816e-07 0.0014334084   109728 
29945000 0.00028553656 3.0820476e-06 3.0820476e-06 0.0014342505 9.4027486e-05 3.0820476e-06 0.0014311685   109728 
29946000 0.00028601586 6.8008169e-07 6.8008169e-07 0.0014342509 7.4527931e-05 6.8008169e-07 0.0014335708   109728 
29947000 0.00028603342 5.9214632e-07 5.9214632e-07  0.001434251 7.2058144e-05 5.9214632e-07 0.0014336589   109728 
29948000 0.00028615049 5.537549e-09 5.537549e-09 0.0014342512 5.3366545e-05 5.537549e-09 0.0014342456   109728 
29949000 0.0002859885 8.1752058e-07 8.1752058e-07 0.0014342512 7.6302245e-05 8.1752058e-07 0.0014334337   109728 
29950000 0.00028492326 6.1564464e-06 6.1564464e-06 0.0014342509 0.0001491041 6.1564464e-06 0.0014280945   109728 
29951000 0.00028578284 1.8482453e-06 1.8482453e-06 0.0014342511 8.7612023e-05 1.8482453e-06 0.0014324029   109728 
29952000 0.00028615155            0            0 0.0014342509 5.1916633e-05            0 0.0014342509   109728 
29953000 0.00028596782 9.301806e-07 9.301806e-07 0.0014342602 6.9489192e-05 9.301806e-07 0.0014333301   109728 
29954000 0.00028612223 1.5633796e-07 1.5633796e-07 0.0014342603 5.7904346e-05 1.5633796e-07  0.001434104   109728 
29955000 0.00028615342            0            0 0.0014342603 5.1975893e-05            0 0.0014342603   109728 
29956000 0.0002852682 4.4361174e-06 4.4361174e-06 0.0014342595 0.00012535004 4.4361174e-06 0.0014298234   109728 
29957000 0.00028615333            0            0 0.0014342599 5.2122966e-05            0 0.0014342599   109728 
29958000 0.00028593941 1.0720969e-06 1.0720969e-06 0.0014342597 7.4034829e-05 1.0720969e-06 0.0014331876   109728 
29959000 0.00028597077 9.1474022e-07 9.1474022e-07 0.0014342596 7.3407325e-05 9.1474022e-07 0.0014333449   109728 
29960000 0.00028615327            0            0 0.0014342596 5.2496363e-05            0 0.0014342596   109728 
29961000 0.00028615327            0            0 0.0014342596 5.2496363e-05            0 0.0014342596   109728 
29962000 0.00028581829 1.6791509e-06 1.6791509e-06 0.0014342597 8.2445162e-05 1.6791509e-06 0.0014325806   109728 
29963000 0.00028611892 1.9338409e-07 1.9338409e-07 0.0014342808 5.8789054e-05 1.9338409e-07 0.0014340874   109728 
29964000 0.00028552394 3.1640913e-06 3.1640913e-06 0.0014342693 9.7048709e-05 3.1640913e-06 0.0014311052   109728 
29965000 0.00028615343 8.9844355e-09 8.9844355e-09 0.0014342693 5.4644401e-05 8.9844355e-09 0.0014342604   109728 
29966000 0.00028615522            0            0 0.0014342693 5.2935204e-05            0 0.0014342693   109728 
29967000 0.00028507207 5.4288857e-06 5.4288857e-06 0.0014342692 0.00012730488 5.4288857e-06 0.0014288404   109728 
29968000 0.00028604344 5.4426177e-07 5.4426177e-07 0.0014342533 6.6842113e-05 5.4426177e-07 0.0014337091   109728 
29969000 0.00028456327 7.963179e-06 7.963179e-06 0.0014342533 0.00014372555 7.963179e-06 0.0014262902   109728 
29970000 0.00028579171 1.8059249e-06 1.8059249e-06 0.0014342533 8.7806996e-05 1.8059249e-06 0.0014324473   109728 
29971000 0.00028483834 6.5845099e-06 6.5845099e-06 0.0014342534 0.00012887426 6.5845099e-06 0.0014276689   109728 
29972000 0.00028586031 1.4620567e-06 1.4620567e-06 0.0014342532 7.7990633e-05 1.4620567e-06 0.0014327912   109728 
29973000 0.00028612062 1.6697936e-07 1.6697936e-07 0.0014342629 5.9871742e-05 1.6697936e-07 0.0014340959   109728 
29974000 0.00028583769 1.5851468e-06 1.5851468e-06 0.0014342629 9.4084096e-05 1.5851468e-06 0.0014326778   109728 
29975000 0.00028615461            0            0 0.0014342663 5.2400306e-05            0 0.0014342663   109728 
29976000 0.0002859341 1.1057889e-06 1.1057889e-06 0.0014342668 7.8033013e-05 1.1057889e-06  0.001433161   109728 
29977000 0.00028615472            0            0 0.0014342668 5.2676416e-05            0 0.0014342668   109728 
29978000 0.00028615472            0            0 0.0014342668 5.2676416e-05            0 0.0014342668   109728 
29979000 0.00028615472            0            0 0.0014342668 5.2676416e-05            0 0.0014342668   109728 
29980000 0.00028538101 3.8781992e-06 3.8781992e-06  0.001434267 0.00010347876 3.8781992e-06 0.0014303888   109728 
29981000 0.00028611985 1.7519909e-07 1.7519909e-07 0.0014342673 5.9109676e-05 1.7519909e-07 0.0014340921   109728 
29982000 0.00028593671 1.0626591e-06 1.0626591e-06 0.0014342368 7.0211539e-05 1.0626591e-06 0.0014331741   109728 
29983000 0.00028603513 5.6931595e-07 5.6931595e-07 0.0014342367 6.7280282e-05 5.6931595e-07 0.0014336674   109728 
29984000 0.00028614869            0            0 0.0014342366 5.1650262e-05            0 0.0014342366   109728 
29985000 0.00028614869            0            0 0.0014342366 5.1650262e-05            0 0.0014342366   109728 
29986000 0.00028614869            0            0 0.0014342366 5.1650262e-05            0 0.0014342366   109728 
29987000 0.00028463375 7.5884043e-06 7.5884043e-06 0.0014342318 0.0001529529 7.5884043e-06 0.0014266434   109728 
29988000 0.00028433068            0            0 0.0014251243 0.00019402929            0 0.0014251243   109728 
29989000 0.0002861456            0            0 0.0014342211 5.1002125e-05            0 0.0014342211   109728 
29990000 0.0002861456            0            0 0.0014342211 5.1002125e-05            0 0.0014342211   109728 
29991000 0.00028520892 4.6950817e-06 4.6950817e-06 0.0014342214 0.00011586209 4.6950817e-06 0.0014295263   109728 
29992000 0.00028614556            0            0 0.0014342209 5.2042867e-05            0 0.0014342209   109728 
29993000 0.00028614556            0            0 0.0014342209 5.2095547e-05            0 0.0014342209   109728 
29994000 0.00028594648 9.9782004e-07 9.9782004e-07 0.0014342209 7.3096812e-05 9.9782004e-07 0.0014332231   109728 
29995000 0.0002854262 3.6057306e-06 3.6057306e-06 0.0014342211 0.00011705443 3.6057306e-06 0.0014306154   109728 
29996000 0.00028610839 1.8671696e-07 1.8671696e-07 0.0014342213 6.2597362e-05 1.8671696e-07 0.0014340346   109728 
29997000 0.00028588039 1.3296557e-06 1.3296557e-06 0.0014342215 7.5397552e-05 1.3296557e-06 0.0014328918   109728 
29998000 0.00028447173 8.3904414e-06 8.3904414e-06 0.0014342218 0.0001704886 8.3904414e-06 0.0014258313   109728 
29999000 0.0002843427 9.0366284e-06 9.0366284e-06 0.0014342212 0.00016628728 9.0366284e-06 0.0014251846   109728 
30000000 0.00028614564            0            0 0.0014342213 5.2562687e-05            0 0.0014342213   109728 
Loop time of 26088.9 on 288 procs for 30000000 steps with 109728 atoms

Performance: 496763.029 tau/day, 1149.914 timesteps/s
95.8% CPU use with 288 MPI tasks x 1 OpenMP threads

MPI task timing breakdown:
Section |  min time  |  avg time  |  max time  |%varavg|  %CPU | %total
-----------------------------------------------------------------------
Pair    | 522.07     | 2005.8     | 3609.3     |2388.6 |  96.3 |  7.69
Bond    | 18.922     | 19.953     | 20.819     |   8.5 | 100.0 |  0.08
Neigh   | 1717.6     | 2712.2     | 3360.4     | 757.9 |  98.8 | 10.40
Comm    | 7355.9     | 9835.6     | 12466      |1253.7 |  95.4 | 37.70
Output  | 3732.3     | 3736.4     | 3743.9     |   6.5 |  95.0 | 14.32
Modify  | 6003.9     | 6952.5     | 8978.6     | 694.4 |  95.4 | 26.65
Other   |            | 826.4      |            |       |       |  3.17

Nlocal:        381.000 ave        1339 max           0 min
Histogram: 88 41 43 28 31 17 15 14 6 5
Nghost:        1697.09 ave        3608 max         241 min
Histogram: 11 24 40 51 61 43 30 17 9 2
Neighs:      0.0833333 ave           7 max           0 min
Histogram: 282 2 1 0 0 0 0 0 1 2

Total # of neighbors = 24
Ave neighs/atom = 0.00021872266
Ave special neighs/atom = 0.0000000
Neighbor list builds = 2126370
Dangerous builds = 1120449

Total wall time: 7:14:54
