LAMMPS (24 Dec 2020)
OMP_NUM_THREADS environment is not set. Defaulting to 1 thread. (src/comm.cpp:94)
  using 1 OpenMP thread(s) per MPI task
# Simple rigid body system
# needed variables: startTemp, temp

units		lj
atom_style	full
dimension 	3
boundary	p p f
pair_style	lj/cut/opt 2.5

variable 	gcmcdisplace	equal 0
variable 	sigma		equal 1.0
variable 	epsilon 	equal 1.0


read_restart	restart.dat.3000000
Reading restart file ...
  restart file = 24 Dec 2020, LAMMPS = 24 Dec 2020
WARNING: Restart file used different # of processors: 48 vs. 192 (src/read_restart.cpp:697)
  restoring atom style full from restart
  orthogonal box = (0.0000000 0.0000000 0.0000000) to (80.000000 80.000000 160.00000)
  6 by 4 by 8 MPI processor grid
  restoring pair style lj/cut/opt from restart
  439061 atoms
Finding 1-2 1-3 1-4 neighbors ...
  special bond factors lj:    0        0        0       
  special bond factors coul:  0        0        0       
     0 = max # of 1-2 neighbors
     0 = max # of 1-3 neighbors
     0 = max # of 1-4 neighbors
     1 = max # of special neighbors
  special bonds CPU = 1.402 seconds
  read_restart CPU = 1.704 seconds

mass		1 1.0
mass		2 1.0
mass		3 1.0


group		solvent type 1
439061 atoms in group solvent


neighbor 	0.4 bin

pair_coeff	1 1 1.0 1.0
pair_coeff	2 2 0.0 0.0
pair_coeff	3 3 0.0 0.0
pair_coeff	2 3 0.0 0.0
pair_coeff	1 2*3 0.0 0.0

pair_modify 	shift yes


balance 	1.05 shift z 10 1.05
Balancing ...
Neighbor list info ...
  update every 1 steps, delay 10 steps, check yes
  max neighbors/atom: 2000, page size: 100000
  master list distance cutoff = 2.9
  ghost atom cutoff = 2.9
  binsize = 1.45, bins = 56 56 111
  1 neighbor lists, perpetual/occasional/extra = 1 0 0
  (1) pair lj/cut/opt, perpetual
      attributes: half, newton on
      pair build: half/bin/newton
      stencil: half/bin/3d/newton
      bin: standard
 rebalancing time: 0.039 seconds
  iteration count = 5
  initial/final maximal load/proc = 3162.0000 2575.0000
  initial/final imbalance factor  = 1.3827327 1.1260394
  x cuts: 0.0000000 0.16666667 0.33333333 0.50000000 0.66666667 0.83333333 1.0000000
  y cuts: 0.0000000 0.25000000 0.50000000 0.75000000 1.0000000
  z cuts: 0.0000000 0.097656250 0.18359375 0.27734375 0.37890625 0.47656250 0.57031250 0.67968750 1.0000000


####################### WALLS ###########################


variable       epsilonWall equal 2*${epsilon}
variable       epsilonWall equal 2*1

variable       cutoffTop   equal   0.7147*${sigma}
variable       cutoffTop   equal   0.7147*1

variable       cutoffLow   equal   3*${sigma}
variable       cutoffLow   equal   3*1


fix            topWall all wall/lj93 zhi EDGE                ${epsilonWall} ${sigma} ${cutoffTop} units box
fix            topWall all wall/lj93 zhi EDGE                2 ${sigma} ${cutoffTop} units box
fix            topWall all wall/lj93 zhi EDGE                2 1 ${cutoffTop} units box
fix            topWall all wall/lj93 zhi EDGE                2 1 0.7147 units box

fix            lowWall all wall/lj93 zlo EDGE                ${epsilonWall} ${sigma} ${cutoffLow} units box
fix            lowWall all wall/lj93 zlo EDGE                2 ${sigma} ${cutoffLow} units box
fix            lowWall all wall/lj93 zlo EDGE                2 1 ${cutoffLow} units box
fix            lowWall all wall/lj93 zlo EDGE                2 1 3 units box


###################### COMPUTES ##########################

compute        bin1 solvent chunk/atom bin/1d z upper 1.0



######################	FIXES ############################


fix 		peclet solvent ave/chunk 1000 1 1000 bin1 density/number norm 		 none ave one file density.profile

fix 		 temp solvent ave/chunk 1000 1 1000 bin1 temp norm none ave one file temp.profile

fix 		2 solvent nve

## Thermostat


region		regthermo block EDGE EDGE EDGE EDGE 0 20

group 		thermo dynamic solvent region regthermo every 1000
dynamic group thermo defined

fix 		3 thermo langevin ${startTemp} ${temp} 10 156453
fix 		3 thermo langevin 1.0 ${temp} 10 156453
fix 		3 thermo langevin 1.0 1.0 10 156453


## Evaporation

region		regevap block EDGE EDGE EDGE EDGE 140 158
fix 		gcmc solvent gcmc 100 100 0 1 780493 ${temp} ${mu} ${gcmcdisplace} region regevap
fix 		gcmc solvent gcmc 100 100 0 1 780493 1.0 ${mu} ${gcmcdisplace} region regevap
fix 		gcmc solvent gcmc 100 100 0 1 780493 1.0 -2.3 ${gcmcdisplace} region regevap
fix 		gcmc solvent gcmc 100 100 0 1 780493 1.0 -2.3 0 region regevap


#### Load balancing

fix 		bal all balance 1000 1.05 shift z 10 1.05

############### Diagnostics and computes ###################
#compute 	com cube	  rigid/local	1 mol x y z
#compute 	quat cube	  rigid/local	1 mol quatw quati quatj quatk

thermo 		1000
thermo_style 	custom step temp epair etotal press pe ke atoms

dump		1 all custom 100000 dump.lammpstrj id mol type x y z
dump 		2 all image 10000 image.*.png type type
dump 		3 all movie 1000 movie.avi type type
#dump 		com cube local 1000 dump.*.xyz c_com[*]
#dump		quat cube      local 1000 dump.*.quat c_quat[*]


restart 	1000000 restart.dat
timestep 	0.005
timer 		full
New timer settings: style=full  mode=nosync  timeout=off


run		5000000
Per MPI rank memory allocation (min/avg/max) = 9.923 | 9.986 | 10.01 Mbytes
Step Temp E_pair TotEng Press PotEng KinEng Atoms 
 3000000     1.016004   -3.1352716   -1.6112691  0.079025997   -3.1352716    1.5240025   439061 
 3001000    1.0155307   -3.1340066   -1.6112447  0.074302562   -3.1340066    1.5227619   439214 
 3002000    1.0173623   -3.1346356   -1.6096445  0.074030931   -3.1346356    1.5249911   439363 
 3003000    1.0178185   -3.1349286   -1.6096634  0.074394287   -3.1349286    1.5252652   439481 
 3004000     1.016254   -3.1313487    -1.609093  0.073795856   -3.1313487    1.5222557   439673 
 3005000    1.0176435   -3.1312692   -1.6075212  0.079342692   -3.1312692    1.5237479   439843 
 3006000    1.0187508   -3.1303374   -1.6053614  0.080463488   -3.1303374     1.524976   439967 
 3007000    1.0190903     -3.13055   -1.6054853  0.078357737     -3.13055    1.5250647   440088 
 3008000    1.0202002   -3.1325748   -1.6063381  0.078147507   -3.1325748    1.5262367   440229 
 3009000    1.0209467   -3.1325379   -1.6056528  0.071728615   -3.1325379    1.5268852   440364 
 3010000    1.0202663    -3.129937   -1.6046339  0.081638611    -3.129937    1.5253031   440527 
 3011000    1.0204513   -3.1299008   -1.6049062  0.075260988   -3.1299008    1.5249946   440696 
 3012000    1.0207899   -3.1296592   -1.6046396  0.078953045   -3.1296592    1.5250196   440835 
 3013000    1.0212661   -3.1278274   -1.6027018  0.084240885   -3.1278274    1.5251256   441010 
 3014000    1.0251576   -3.1305328   -1.6001753  0.077745395   -3.1305328    1.5303575   441177 
 3015000    1.0247352   -3.1279889   -1.5989239  0.078855529   -3.1279889    1.5290649   441368 
 3016000    1.0257223   -3.1278902   -1.5978064  0.082521942   -3.1278902    1.5300838   441499 
 3017000      1.02531   -3.1273277   -1.5983889  0.081917931   -3.1273277    1.5289388   441652 
 3018000    1.0267189    -3.127515   -1.5968807   0.07839377    -3.127515    1.5306343   441769 
 3019000    1.0271234   -3.1266381   -1.5959898  0.084612202   -3.1266381    1.5306483   441939 
 3020000    1.0279457   -3.1264394   -1.5950715  0.082120716   -3.1264394    1.5313679   442085 
 3021000    1.0288673   -3.1258015   -1.5934628  0.089770323   -3.1258015    1.5323387   442201 
 3022000    1.0280478   -3.1254699   -1.5948813  0.078815797   -3.1254699    1.5305886   442354 
 3023000    1.0271884   -3.1247212   -1.5958545  0.079856972   -3.1247212    1.5288667   442482 
 3024000    1.0284682    -3.126032   -1.5957723  0.082068386    -3.126032    1.5302597   442630 
 3025000    1.0292225   -3.1261431    -1.595387  0.079133768   -3.1261431    1.5307561   442811 
 3026000    1.0297901   -3.1260955    -1.594955  0.084936588   -3.1260955    1.5311404   442944 
 3027000    1.0282923   -3.1244389   -1.5959914  0.079278218   -3.1244389    1.5284476   443079 
 3028000    1.0296966    -3.125574   -1.5955604  0.080265799    -3.125574    1.5300136   443230 
 3029000    1.0294423   -3.1262352   -1.5971447  0.078879119   -3.1262352    1.5290905   443388 
 3030000    1.0312729   -3.1265586   -1.5951566  0.080602665   -3.1265586     1.531402   443506 
 3031000     1.031662   -3.1256588   -1.5940795  0.086846294   -3.1256588    1.5315794   443622 
 3032000    1.0314715    -3.124265   -1.5934481  0.090605795    -3.124265    1.5308168   443761 
 3033000    1.0318783   -3.1234586   -1.5925003  0.079868308   -3.1234586    1.5309583   443895 
 3034000    1.0339013   -3.1262454    -1.592645  0.082267134   -3.1262454    1.5336004   443999 
 3035000    1.0343567   -3.1244693   -1.5907322  0.084512045   -3.1244693    1.5337371   444155 
 3036000    1.0341802    -3.124339   -1.5914262  0.082783614    -3.124339    1.5329128   444318 
 3037000    1.0338942   -3.1244611   -1.5923205  0.081788187   -3.1244611    1.5321406   444419 
 3038000    1.0363233   -3.1261153    -1.590831  0.083355395   -3.1261153    1.5352842   444551 
 3039000    1.0362478   -3.1249513   -1.5901311  0.085044547   -3.1249513    1.5348202   444653 
 3040000    1.0361071   -3.1251535   -1.5909867  0.085483298   -3.1251535    1.5341668   444782 
 3041000    1.0350247   -3.1228935   -1.5909046  0.087718372   -3.1228935    1.5319889   444949 
 3042000    1.0374209   -3.1242451   -1.5893304  0.083920714   -3.1242451    1.5349147   445129 
 3043000    1.0400133    -3.126666    -1.588593  0.087120492    -3.126666     1.538073   445325 
 3044000    1.0383546   -3.1245198   -1.5893378   0.08618252   -3.1245198    1.5351821   445452 
 3045000    1.0397002    -3.125652   -1.5889807  0.084366616    -3.125652    1.5366714   445597 
 3046000    1.0396623   -3.1246034   -1.5884052  0.083447446   -3.1246034    1.5361982   445718 
 3047000    1.0399335   -3.1246877   -1.5885919  0.085828897   -3.1246877    1.5360958   445864 
 3048000    1.0396481   -3.1227917   -1.5875652  0.090924818   -3.1227917    1.5352265   445994 
 3049000    1.0401358   -3.1221347   -1.5866493  0.088375414   -3.1221347    1.5354854   446128 
 3050000    1.0405494   -3.1232145   -1.5875522  0.088259668   -3.1232145    1.5356623   446254 
 3051000    1.0422317   -3.1240883   -1.5863602  0.082043663   -3.1240883    1.5377281   446375 
 3052000    1.0420706   -3.1223799   -1.5853681  0.090854834   -3.1223799    1.5370118   446514 
 3053000    1.0414746   -3.1220805   -1.5863571  0.083620334   -3.1220805    1.5357234   446633 
 3054000    1.0423665   -3.1204804   -1.5840129  0.085441505   -3.1204804    1.5364676   446799 
 3055000    1.0427421   -3.1202625   -1.5836403   0.08791738   -3.1202625    1.5366223   446915 
 3056000    1.0418247   -3.1183091   -1.5834407  0.085720714   -3.1183091    1.5348685   447032 
 3057000    1.0411959   -3.1165378    -1.583172  0.089740044   -3.1165378    1.5333658   447200 
 3058000    1.0436397   -3.1188907   -1.5824481  0.088274523   -3.1188907    1.5364426   447352 
 3059000    1.0447153   -3.1201507   -1.5826023  0.089901364   -3.1201507    1.5375484   447491 
 3060000    1.0448292    -3.119309   -1.5821083  0.086303416    -3.119309    1.5372007   447641 
 3061000     1.042654   -3.1162306   -1.5827439    0.0940579   -3.1162306    1.5334867   447791 
 3062000    1.0435412   -3.1179255   -1.5836685  0.089575147   -3.1179255     1.534257   447947 
 3063000    1.0445565   -3.1177532   -1.5824902  0.087380345   -3.1177532    1.5352631   448089 
 3064000    1.0469167   -3.1182515   -1.5800035  0.087662847   -3.1182515    1.5382479   448230 
 3065000    1.0467467   -3.1177084   -1.5801734  0.085093556   -3.1177084     1.537535   448365 
 3066000    1.0476397   -3.1177867   -1.5794511   0.08541887   -3.1177867    1.5383356   448514 
 3067000    1.0476367   -3.1164045   -1.5785945  0.087767829   -3.1164045    1.5378099   448666 
 3068000    1.0497084   -3.1182464   -1.5778589  0.090768218   -3.1182464    1.5403875   448801 
 3069000     1.048947   -3.1169252   -1.5781041  0.085473915   -3.1169252    1.5388211   448932 
 3070000     1.048924   -3.1155117   -1.5770603  0.088309517   -3.1155117    1.5384514   449030 
 3071000    1.0479826   -3.1151949   -1.5785417  0.090183489   -3.1151949    1.5366532   449152 
 3072000     1.048037   -3.1130923   -1.5768929  0.096131547   -3.1130923    1.5361994   449308 
 3073000    1.0497946   -3.1151091   -1.5768915  0.091421359   -3.1151091    1.5382176   449471 
 3074000    1.0501606    -3.115474   -1.5771513  0.089133202    -3.115474    1.5383227   449597 
 3075000    1.0519656   -3.1165488   -1.5760344  0.090862595   -3.1165488    1.5405144   449729 
 3076000    1.0503543   -3.1149397   -1.5772499  0.086730391   -3.1149397    1.5376899   449865 
 3077000    1.0511558   -3.1159196   -1.5775249  0.089177089   -3.1159196    1.5383947   450002 
 3078000    1.0525988   -3.1156659   -1.5756213  0.092442607   -3.1156659    1.5400446   450137 
 3079000    1.0523902   -3.1135016    -1.574323  0.094703764   -3.1135016    1.5391785   450301 
 3080000    1.0550338   -3.1169138   -1.5744955  0.088819898   -3.1169138    1.5424182   450484 
 3081000    1.0549259   -3.1174464    -1.575672  0.088352466   -3.1174464    1.5417744   450626 
 3082000    1.0552869   -3.1161221   -1.5744393   0.08892887   -3.1161221    1.5416828   450807 
 3083000      1.05508   -3.1152921   -1.5743183  0.094267838   -3.1152921    1.5409738   450926 
 3084000    1.0563037   -3.1173268   -1.5750447   0.09037107   -3.1173268    1.5422821   451066 
 3085000    1.0573689   -3.1180916   -1.5746374  0.089979636   -3.1180916    1.5434542   451178 
 3086000    1.0574956   -3.1166292   -1.5734587  0.097187689   -3.1166292    1.5431705   451315 
 3087000    1.0572218   -3.1151515   -1.5726846  0.094851702   -3.1151515    1.5424669   451404 
 3088000    1.0570525   -3.1150566   -1.5731749  0.094365835   -3.1150566    1.5418817   451503 
 3089000    1.0563915   -3.1137741   -1.5733138  0.092941723   -3.1137741    1.5404603   451637 
 3090000    1.0577614   -3.1137419   -1.5717551  0.089496758   -3.1137419    1.5419868   451775 
 3091000    1.0584074   -3.1148804   -1.5724026  0.098203242   -3.1148804    1.5424778   451907 
 3092000    1.0593355    -3.115336   -1.5719531  0.098832697    -3.115336     1.543383   452038 
 3093000    1.0593496   -3.1148884   -1.5718706  0.088997133   -3.1148884    1.5430178   452151 
 3094000    1.0603112   -3.1159849   -1.5720513   0.09038777   -3.1159849    1.5439336   452293 
 3095000    1.0607117   -3.1140262    -1.569786  0.099874349   -3.1140262    1.5442402   452374 
 3096000    1.0611768   -3.1136508   -1.5690784  0.095102114   -3.1136508    1.5445725   452475 
 3097000    1.0611639   -3.1140683   -1.5698729  0.092732846   -3.1140683    1.5441954   452580 
 3098000    1.0619011   -3.1144994   -1.5695453  0.091834813   -3.1144994    1.5449541   452672 
 3099000    1.0618743   -3.1139376   -1.5694388   0.10060358   -3.1139376    1.5444988   452794 
 3100000    1.0614682   -3.1126436   -1.5691956  0.092986374   -3.1126436     1.543448   452929 
 3101000     1.060797   -3.1123324   -1.5702893  0.084328655   -3.1123324    1.5420431   453055 
 3102000    1.0596792   -3.1108377   -1.5708615  0.087798742   -3.1108377    1.5399762   453185 
 3103000    1.0606966   -3.1101824   -1.5692105  0.091187591   -3.1101824    1.5409719   453327 
 3104000    1.0602982    -3.110674   -1.5706309  0.089330483    -3.110674    1.5400431   453430 
 3105000     1.060466   -3.1098359   -1.5699327  0.092562013   -3.1098359    1.5399031   453543 
 3106000    1.0620375   -3.1105005   -1.5686859  0.092152987   -3.1105005    1.5418146   453652 
 3107000    1.0626088    -3.110004   -1.5678563  0.093288422    -3.110004    1.5421477   453798 
 3108000    1.0627314    -3.109978   -1.5680024  0.092944304    -3.109978    1.5419756   453901 
 3109000     1.065017    -3.111195   -1.5662367  0.097390609    -3.111195    1.5449583   453999 
 3110000    1.0638969   -3.1083667   -1.5654275   0.10094945   -3.1083667    1.5429392   454115 
 3111000    1.0658503   -3.1105199   -1.5651084  0.088610329   -3.1105199    1.5454115   454221 
 3112000    1.0656339   -3.1097997     -1.56511  0.094920845   -3.1097997    1.5446897   454341 
 3113000    1.0668574   -3.1099208   -1.5637877  0.094926782   -3.1099208    1.5461331   454438 
 3114000    1.0665084   -3.1107714   -1.5655114  0.095186598   -3.1107714      1.54526   454546 
 3115000    1.0669765   -3.1107757   -1.5652522  0.093902734   -3.1107757    1.5455235   454668 
 3116000    1.0663492   -3.1087784   -1.5645271  0.091802418   -3.1087784    1.5442513   454775 
 3117000    1.0672514   -3.1106607   -1.5653542  0.090834507   -3.1106607    1.5453065   454849 
 3118000    1.0677041   -3.1115145   -1.5659874  0.095454282   -3.1115145    1.5455271   454977 
 3119000     1.066342   -3.1102637   -1.5670679  0.094423852   -3.1102637    1.5431958   455083 
 3120000    1.0671176    -3.110468   -1.5665773  0.092468537    -3.110468    1.5438907   455209 
 3121000    1.0673624   -3.1101968   -1.5663928   0.09184402   -3.1101968     1.543804   455339 
 3122000    1.0667721   -3.1091225   -1.5665686  0.094437245   -3.1091225    1.5425539   455456 
 3123000    1.0683401     -3.10954   -1.5650342  0.098010829     -3.10954    1.5445058   455549 
 3124000    1.0686381   -3.1097781     -1.56515   0.09047228   -3.1097781    1.5446281   455640 
 3125000    1.0688395   -3.1091186   -1.5645485  0.093187635   -3.1091186    1.5445701   455743 
 3126000    1.0687057    -3.108447   -1.5644463  0.097060447    -3.108447    1.5440007   455854 
 3127000    1.0692835   -3.1080453   -1.5635656  0.093306994   -3.1080453    1.5444797   455959 
 3128000    1.0715659   -3.1109364   -1.5635536  0.098837096   -3.1109364    1.5473828   456075 
 3129000     1.071644   -3.1109607   -1.5638383  0.096348157   -3.1109607    1.5471224   456185 
 3130000    1.0714854   -3.1084078   -1.5620126  0.096552608   -3.1084078    1.5463952   456332 
 3131000    1.0703936   -3.1075998    -1.563244   0.10043024   -3.1075998    1.5443558   456469 
 3132000    1.0719474   -3.1091882   -1.5629259   0.09660434   -3.1091882    1.5462623   456568 
 3133000    1.0726919   -3.1113329   -1.5644271  0.092438354   -3.1113329    1.5469058   456695 
 3134000    1.0737772   -3.1116236   -1.5634544  0.094281747   -3.1116236    1.5481692   456784 
 3135000     1.072786   -3.1087601   -1.5624465  0.094350058   -3.1087601    1.5463135   456910 
 3136000    1.0737128   -3.1104461   -1.5632301  0.089455788   -3.1104461     1.547216   457038 
 3137000    1.0746023   -3.1110748   -1.5628887  0.092771706   -3.1110748    1.5481862   457130 
 3138000    1.0751456   -3.1113884   -1.5629107   0.09602265   -3.1113884    1.5484777   457275 
 3139000    1.0746064   -3.1093848    -1.561995  0.094676518   -3.1093848    1.5473898   457367 
 3140000    1.0757557   -3.1096481    -1.560898  0.095998969   -3.1096481    1.5487501   457454 
 3141000    1.0731231   -3.1064832   -1.5619283  0.094969303   -3.1064832    1.5445549   457574 
 3142000    1.0750096   -3.1081706   -1.5611845  0.093851961   -3.1081706    1.5469861   457658 
 3143000    1.0751061   -3.1082432   -1.5615508    0.0954436   -3.1082432    1.5466924   457786 
 3144000    1.0746799   -3.1069693   -1.5613323   0.10040361   -3.1069693     1.545637   457917 
 3145000     1.074192   -3.1046464   -1.5601159  0.094822757   -3.1046464    1.5445304   458037 
 3146000    1.0745266   -3.1049962   -1.5603455  0.096721893   -3.1049962    1.5446507   458144 
 3147000    1.0752759   -3.1048751   -1.5595015  0.098844108   -3.1048751    1.5453737   458249 
 3148000      1.07673   -3.1062476    -1.559061  0.097480614   -3.1062476    1.5471867   458331 
 3149000    1.0764147    -3.105497    -1.559121  0.091220795    -3.105497    1.5463759   458437 
 3150000    1.0772548   -3.1062581   -1.5589656  0.095489406   -3.1062581    1.5472926   458523 
 3151000    1.0776924   -3.1055796   -1.5581376  0.092086894   -3.1055796     1.547442   458665 
 3152000    1.0782423   -3.1055563   -1.5576556  0.093860296   -3.1055563    1.5479007   458763 
 3153000    1.0789551   -3.1052697   -1.5566326  0.093352547   -3.1052697    1.5486371   458848 
 3154000    1.0779255   -3.1041729   -1.5574349  0.094501306   -3.1041729    1.5467379   458973 
 3155000     1.078947   -3.1034847   -1.5556385  0.091048429   -3.1034847    1.5478462   459079 
 3156000    1.0774662   -3.1016641   -1.5563899  0.091181333   -3.1016641    1.5452742   459212 
 3157000    1.0788813    -3.103047   -1.5562283  0.092392075    -3.103047    1.5468187   459356 
 3158000     1.080277   -3.1050908   -1.5565341  0.093255102   -3.1050908    1.5485567   459434 
 3159000     1.079219   -3.1018308   -1.5550802  0.098335833   -3.1018308    1.5467506   459520 
 3160000    1.0788997   -3.1024061   -1.5564159  0.096449941   -3.1024061    1.5459902   459610 
 3161000    1.0803858   -3.1029294   -1.5551937  0.096820874   -3.1029294    1.5477357   459724 
 3162000    1.0814001   -3.1032139   -1.5544395  0.097586349   -3.1032139    1.5487744   459847 
 3163000    1.0833334   -3.1049237   -1.5537514   0.10091513   -3.1049237    1.5511723   459957 
 3164000    1.0828928   -3.1039231   -1.5536412  0.098811146   -3.1039231    1.5502818   460034 
 3165000    1.0843857   -3.1052889   -1.5532038  0.098779968   -3.1052889    1.5520851   460133 
 3166000    1.0838953   -3.1043631   -1.5532058   0.09525028   -3.1043631    1.5511573   460200 
 3167000    1.0838005   -3.1040195   -1.5533483  0.098848659   -3.1040195    1.5506712   460304 
 3168000    1.0821843   -3.1017579   -1.5537119   0.09988788   -3.1017579     1.548046   460397 
 3169000    1.0829449    -3.102508   -1.5537608  0.097963388    -3.102508    1.5487473   460512 
 3170000    1.0844857   -3.1038414   -1.5532105  0.097716073   -3.1038414    1.5506309   460607 
 3171000    1.0843182   -3.1038993   -1.5539017   0.10045702   -3.1038993    1.5499976   460724 
 3172000    1.0839205   -3.1029301   -1.5539144   0.10458825   -3.1029301    1.5490157   460847 
 3173000    1.0848595   -3.1045873   -1.5546334  0.093755688   -3.1045873    1.5499539   460967 
 3174000    1.0829921   -3.1016383   -1.5548188  0.096287324   -3.1016383    1.5468195   461106 
 3175000    1.0843259    -3.103496   -1.5550266  0.096928117    -3.103496    1.5484694   461182 
 3176000    1.0838436   -3.1040996   -1.5566714  0.094167955   -3.1040996    1.5474282   461287 
 3177000    1.0829043   -3.1023382    -1.556653  0.098998057   -3.1023382    1.5456851   461407 
 3178000    1.0858557   -3.1049685   -1.5553159  0.095691118   -3.1049685    1.5496526   461480 
 3179000    1.0844082   -3.1021617   -1.5548933  0.094131453   -3.1021617    1.5472684   461575 
 3180000    1.0847643   -3.1027078   -1.5552733  0.095052824   -3.1027078    1.5474345   461677 
 3181000    1.0862422   -3.1035553   -1.5544085   0.09868203   -3.1035553    1.5491468   461795 
 3182000    1.0873973   -3.1041584   -1.5538175   0.09314822   -3.1041584    1.5503409   461930 
 3183000    1.0879468   -3.1053707   -1.5546727  0.092637511   -3.1053707     1.550698   462057 
 3184000     1.086425   -3.1024454   -1.5542817   0.10048415   -3.1024454    1.5481637   462166 
 3185000     1.088869   -3.1056773   -1.5543565  0.097312657   -3.1056773    1.5513208   462263 
 3186000    1.0874836   -3.1019826   -1.5530544   0.10034772   -3.1019826    1.5489282   462388 
 3187000    1.0903332   -3.1055592    -1.552992  0.093188217   -3.1055592    1.5525672   462513 
 3188000    1.0911651   -3.1062936   -1.5528272  0.096681878   -3.1062936    1.5534664   462598 
 3189000    1.0901664   -3.1045222   -1.5528434  0.099983273   -3.1045222    1.5516788   462707 
 3190000     1.090445   -3.1045634   -1.5528938  0.099049982   -3.1045634    1.5516696   462828 
 3191000    1.0890955   -3.1036499   -1.5542788   0.09786641   -3.1036499    1.5493711   462941 
 3192000    1.0903896   -3.1038797   -1.5529892   0.10043203   -3.1038797    1.5508905   463037 
 3193000    1.0908799   -3.1042279    -1.552945    0.1000295   -3.1042279     1.551283   463128 
 3194000    1.0911067   -3.1043754    -1.553068   0.10000429   -3.1043754    1.5513074   463217 
 3195000    1.0904784   -3.1041183   -1.5539485  0.099472444   -3.1041183    1.5501699   463290 
 3196000    1.0911431   -3.1037021   -1.5529323  0.097409297   -3.1037021    1.5507699   463393 
 3197000    1.0894391   -3.1018656   -1.5538348   0.10241416   -3.1018656    1.5480307   463488 
 3198000    1.0927481   -3.1044559   -1.5520548   0.10515347   -3.1044559    1.5524011   463587 
 3199000      1.09436   -3.1052559    -1.550994   0.10028703   -3.1052559    1.5542619   463715 
 3200000    1.0941827   -3.1047807   -1.5510956   0.10299084   -3.1047807    1.5536851   463812 
 3201000    1.0945886   -3.1045531   -1.5505263    0.1073995   -3.1045531    1.5540268   463882 
 3202000    1.0936525   -3.1041942   -1.5517708   0.09935868   -3.1041942    1.5524234   463964 
 3203000    1.0947126   -3.1055664   -1.5520099  0.096695952   -3.1055664    1.5535565   464075 
 3204000      1.09261   -3.1020014   -1.5517828   0.10139702   -3.1020014    1.5502186   464181 
 3205000     1.093598    -3.103858   -1.5525384  0.099423736    -3.103858    1.5513197   464271 
 3206000    1.0934835   -3.1030597   -1.5522666   0.10272766   -3.1030597    1.5507931   464380 
 3207000    1.0951823   -3.1057935   -1.5530292  0.093690323   -3.1057935    1.5527643   464511 
 3208000    1.0956768   -3.1056941    -1.552523  0.095421565   -3.1056941    1.5531712   464599 
 3209000    1.0937879    -3.101941   -1.5517277   0.10096951    -3.101941    1.5502133   464683 
 3210000     1.093491   -3.1007529   -1.5511738  0.098589389   -3.1007529     1.549579   464747 
 3211000    1.0955072   -3.1029066   -1.5508411  0.099980102   -3.1029066    1.5520655   464858 
 3212000    1.0956689   -3.1026913   -1.5506938   0.10169979   -3.1026913    1.5519975   464947 
 3213000    1.0941612   -3.1012785     -1.55169  0.099386138   -3.1012785    1.5495885   465029 
 3214000    1.0967191   -3.1041257   -1.5512184  0.099214196   -3.1041257    1.5529073   465120 
 3215000    1.0958723   -3.1018761   -1.5505347   0.09776983   -3.1018761    1.5513414   465230 
 3216000    1.0960816   -3.1012468    -1.549946   0.10424376   -3.1012468    1.5513008   465331 
 3217000    1.0975872   -3.1019044    -1.548723   0.10522082   -3.1019044    1.5531814   465406 
 3218000    1.0975931   -3.1019773   -1.5491612   0.10012727   -3.1019773    1.5528162   465518 
 3219000    1.0970785   -3.1013616   -1.5496835   0.10601451   -3.1013616    1.5516781   465641 
 3220000    1.0987118   -3.1028157   -1.5491279  0.096390158   -3.1028157    1.5536878   465731 
 3221000    1.0991404   -3.1031873   -1.5492604   0.10089993   -3.1031873    1.5539269   465841 
 3222000    1.0994145   -3.1024246   -1.5484705   0.10076437   -3.1024246    1.5539541   465949 
 3223000    1.0992848   -3.1032222   -1.5498214   0.10029736   -3.1032222    1.5534008   466060 
 3224000     1.098981   -3.1037824   -1.5510508  0.099718033   -3.1037824    1.5527316   466132 
 3225000    1.0983792   -3.1004361   -1.5487811   0.10148123   -3.1004361     1.551655   466200 
 3226000    1.0989221    -3.101191   -1.5490421  0.099222581    -3.101191    1.5521489   466282 
 3227000    1.0998931   -3.1019025   -1.5487418   0.09968146   -3.1019025    1.5531607   466390 
 3228000    1.1000107   -3.1013751   -1.5484613    0.1053871   -3.1013751    1.5529138   466514 
 3229000    1.1007351   -3.1030729   -1.5494128   0.10485629   -3.1030729    1.5536601   466597 
 3230000    1.0997893   -3.1019952    -1.550026    0.1087099   -3.1019952    1.5519692   466704 
 3231000    1.0995073   -3.1006859   -1.5495135   0.10101871   -3.1006859    1.5511724   466824 
 3232000    1.1013936     -3.10291   -1.5493427   0.10483199     -3.10291    1.5535673   466904 
 3233000    1.1020519   -3.1042767   -1.5501569  0.098348255   -3.1042767    1.5541197   467017 
 3234000    1.1013229   -3.1024005   -1.5496245   0.10281136   -3.1024005    1.5527759   467112 
 3235000    1.1032063   -3.1041493   -1.5490775   0.10109953   -3.1041493    1.5550718   467220 
 3236000    1.1006265   -3.1009749   -1.5497985   0.10407369   -3.1009749    1.5511764   467298 
 3237000    1.1035439   -3.1038805   -1.5489818   0.10444452   -3.1038805    1.5548987   467415 
 3238000    1.1030427   -3.1035685   -1.5497384   0.10198779   -3.1035685    1.5538301   467524 
 3239000    1.1021336   -3.1017193   -1.5495017   0.10805572   -3.1017193    1.5522176   467624 
 3240000    1.1040035   -3.1031193   -1.5485906   0.10202985   -3.1031193    1.5545286   467721 
 3241000    1.1033756   -3.1013957   -1.5481265   0.10437068   -3.1013957    1.5532692   467834 
 3242000    1.1037003   -3.1008813   -1.5475868   0.10409656   -3.1008813    1.5532946   467964 
 3243000    1.1039607   -3.1013662   -1.5480104   0.10467164   -3.1013662    1.5533558   468056 
 3244000    1.1052861   -3.1019501    -1.547045   0.10018654   -3.1019501    1.5549051   468151 
 3245000    1.1052497   -3.0997427   -1.5453006   0.11071498   -3.0997427    1.5544422   468275 
 3246000    1.1048327   -3.0995822   -1.5460517   0.10534965   -3.0995822    1.5535305   468373 
 3247000    1.1054565    -3.098989   -1.5449462   0.10393802    -3.098989    1.5540427   468483 
 3248000    1.1048894    -3.099223    -1.546226  0.099384839    -3.099223    1.5529969   468558 
 3249000    1.1056993   -3.0991346   -1.5453641   0.10597353   -3.0991346    1.5537705   468668 
 3250000    1.1078225   -3.1027233   -1.5463379  0.094845668   -3.1027233    1.5563854   468779 
 3251000    1.1055748   -3.0998947    -1.546889   0.10458005   -3.0998947    1.5530057   468846 
 3252000    1.1079526    -3.101227   -1.5452529   0.10026837    -3.101227    1.5559741   468958 
 3253000    1.1064236   -3.0977293   -1.5442701   0.10416677   -3.0977293    1.5534592   469069 
 3254000    1.1078367   -3.1004784   -1.5453734    0.1020939   -3.1004784    1.5551051   469171 
 3255000    1.1064832   -3.0981061   -1.5451856   0.10599032   -3.0981061    1.5529204   469257 
 3256000    1.1084924   -3.1003541   -1.5449684  0.097149873   -3.1003541    1.5553856   469364 
 3257000    1.1073333   -3.0994303   -1.5460318   0.10244939   -3.0994303    1.5533985   469473 
 3258000    1.1066561   -3.0979198   -1.5456697   0.11094542   -3.0979198    1.5522501   469533 
 3259000    1.1075729   -3.0975906   -1.5444019  0.099806727   -3.0975906    1.5531887   469638 
 3260000    1.1091042   -3.1005095   -1.5454416  0.096550026   -3.1005095    1.5550679   469719 
 3261000    1.1066577   -3.0966302   -1.5453195   0.10073753   -3.0966302    1.5513106   469818 
 3262000    1.1100969   -3.1014413   -1.5456108  0.097732342   -3.1014413    1.5558305   469909 
 3263000    1.1093504    -3.099837   -1.5452975   0.10751333    -3.099837    1.5545394   469983 
 3264000    1.1075388   -3.0975439   -1.5457808  0.099817988   -3.0975439    1.5517631   470055 
 3265000    1.1106884    -3.101835   -1.5459238   0.10024737    -3.101835    1.5559112   470135 
 3266000    1.1101382   -3.1009792   -1.5461464    0.1027096   -3.1009792    1.5548328   470228 
 3267000    1.1121445   -3.1030187    -1.545674  0.099006432   -3.1030187    1.5573447   470318 
 3268000    1.1107267   -3.1005628   -1.5454944    0.1053909   -3.1005628    1.5550684   470406 
 3269000    1.1106285   -3.1015794   -1.5469724  0.099865344   -3.1015794     1.554607   470504 
 3270000    1.1110045   -3.1001721   -1.5453262   0.10926083   -3.1001721    1.5548459   470591 
 3271000    1.1127047    -3.102248   -1.5453932   0.10317928    -3.102248    1.5568548   470703 
 3272000    1.1122691   -3.1009581   -1.5449938   0.10323743   -3.1009581    1.5559643   470788 
 3273000    1.1128778   -3.0997984   -1.5432471   0.11017673   -3.0997984    1.5565513   470868 
 3274000    1.1148659   -3.1028201   -1.5438224   0.10514282   -3.1028201    1.5589976   470969 
 3275000    1.1145373   -3.1019781   -1.5437311   0.10280152   -3.1019781     1.558247   471057 
 3276000    1.1148215   -3.1010721    -1.542795   0.10771957   -3.1010721    1.5582771   471168 
 3277000    1.1143318   -3.1012331   -1.5440173  0.099509427   -3.1012331    1.5572158   471282 
 3278000    1.1138857   -3.1002868    -1.544051   0.10730637   -3.1002868    1.5562358   471390 
 3279000    1.1146628   -3.1006614   -1.5435844   0.10769961   -3.1006614    1.5570771   471464 
 3280000    1.1141319   -3.1005134    -1.544574     0.104095   -3.1005134    1.5559394   471584 
 3281000    1.1152003   -3.1018665   -1.5448049   0.10215403   -3.1018665    1.5570616   471696 
 3282000    1.1139871   -3.1006914   -1.5455742   0.10776538   -3.1006914    1.5551173   471772 
 3283000    1.1152045   -3.0998213   -1.5432983   0.10381957   -3.0998213     1.556523   471861 
 3284000    1.1162418   -3.1014921   -1.5437721   0.10050444   -3.1014921    1.5577199   471937 
 3285000    1.1161336   -3.1001061   -1.5428605  0.096521854   -3.1001061    1.5572456   472035 
 3286000    1.1153128   -3.0987315   -1.5428816   0.10223388   -3.0987315    1.5558499   472111 
 3287000    1.1158875   -3.0992695   -1.5429575   0.09996615   -3.0992695     1.556312   472214 
 3288000    1.1154342   -3.0988241   -1.5434407  0.098864038   -3.0988241    1.5553835   472304 
 3289000    1.1144771   -3.0969702    -1.543247   0.10138647   -3.0969702    1.5537232   472403 
 3290000    1.1165923   -3.0987035    -1.542407   0.10106286   -3.0987035    1.5562965   472517 
 3291000     1.115112   -3.0970124   -1.5431213   0.10333201   -3.0970124    1.5538911   472621 
 3292000    1.1162751   -3.0966978    -1.541426  0.097434079   -3.0966978    1.5552718   472694 
 3293000    1.1171053   -3.0966846   -1.5405328   0.10381166   -3.0966846    1.5561519   472778 
 3294000    1.1183763   -3.0978016   -1.5401132   0.10722533   -3.0978016    1.5576884   472849 
 3295000    1.1180658   -3.0975293   -1.5406289   0.10659403   -3.0975293    1.5569005   472957 
 3296000    1.1187904   -3.0968997   -1.5392405   0.10397923   -3.0968997    1.5576592   473033 
 3297000    1.1180205   -3.0966649   -1.5403376   0.10415162   -3.0966649    1.5563273   473112 
 3298000    1.1201358   -3.0993239   -1.5403421   0.10471469   -3.0993239    1.5589819   473200 
 3299000    1.1200449   -3.1000023   -1.5415256   0.10186769   -3.1000023    1.5584767   473315 
 3300000    1.1202415   -3.1001324   -1.5416522   0.10653826   -3.1001324    1.5584802   473397 
 3301000    1.1196508   -3.0982778   -1.5410142   0.10245576   -3.0982778    1.5572637   473517 
 3302000    1.1194741   -3.0980096   -1.5412448   0.10386779   -3.0980096    1.5567647   473594 
 3303000    1.1196468   -3.0974031   -1.5406118   0.10404561   -3.0974031    1.5567913   473659 
 3304000    1.1214176   -3.1001158   -1.5412507    0.1010311   -3.1001158    1.5588651   473777 
 3305000    1.1196496   -3.0974972   -1.5414806   0.10412395   -3.0974972    1.5560166   473896 
 3306000    1.1202709   -3.0987404   -1.5421528   0.10379707   -3.0987404    1.5565877   473985 
 3307000    1.1199469     -3.09866    -1.542831  0.095966698     -3.09866     1.555829   474079 
 3308000    1.1186526   -3.0973187   -1.5435795   0.10071974   -3.0973187    1.5537392   474168 
 3309000    1.1216243   -3.0991971   -1.5417147   0.10318648   -3.0991971    1.5574824   474285 
 3310000    1.1215938   -3.0992602    -1.542178   0.10770331   -3.0992602    1.5570822   474394 
 3311000    1.1212431   -3.0970008   -1.5407073   0.10601104   -3.0970008    1.5562935   474486 
 3312000    1.1240934   -3.1001036   -1.5402221   0.10753673   -3.1001036    1.5598815   474598 
 3313000    1.1239353   -3.1002463   -1.5409159   0.10692455   -3.1002463    1.5593304   474699 
 3314000    1.1233948   -3.0993812   -1.5411487   0.10592545   -3.0993812    1.5582326   474805 
 3315000    1.1244709   -3.1004494   -1.5411052   0.10585352   -3.1004494    1.5593442   474921 
 3316000    1.1246993   -3.1017542   -1.5424119   0.10330847   -3.1017542    1.5593424   475018 
 3317000    1.1244619   -3.1018026   -1.5430257    0.1074356   -3.1018026     1.558777   475090 
 3318000    1.1250879   -3.1022489   -1.5428635   0.10779836   -3.1022489    1.5593855   475169 
 3319000    1.1252126   -3.1004031   -1.5411762   0.11092048   -3.1004031    1.5592269   475270 
 3320000    1.1260391   -3.1017596   -1.5416993   0.10487107   -3.1017596    1.5600603   475365 
 3321000     1.125396   -3.1019051   -1.5430636   0.10413918   -3.1019051    1.5588415   475465 
 3322000    1.1261325   -3.1022971   -1.5427274   0.10919221   -3.1022971    1.5595697   475554 
 3323000    1.1254619   -3.1017463   -1.5433347   0.10417308   -3.1017463    1.5584116   475624 
 3324000    1.1273003   -3.1028278   -1.5421692   0.10601468   -3.1028278    1.5606586   475715 
 3325000    1.1281129   -3.1037875   -1.5423486   0.10493236   -3.1037875    1.5614389   475820 
 3326000     1.126659   -3.1011398   -1.5420278   0.10953619   -3.1011398     1.559112   475916 
 3327000    1.1279678   -3.1026135    -1.541933   0.10818221   -3.1026135    1.5606805   475990 
 3328000    1.1266577   -3.1013869   -1.5427876   0.10560573   -3.1013869    1.5585993   476072 
 3329000    1.1278988   -3.1019304   -1.5419845   0.10261863   -3.1019304    1.5599459   476185 
 3330000    1.1299921   -3.1026195   -1.5401393   0.10598391   -3.1026195    1.5624802   476295 
 3331000    1.1296829   -3.1021204   -1.5403202   0.10491172   -3.1021204    1.5618002   476372 
 3332000    1.1287689   -3.1001947   -1.5398384   0.11177827   -3.1001947    1.5603564   476427 
 3333000    1.1300656   -3.1003755   -1.5386037   0.11082534   -3.1003755    1.5617718   476542 
 3334000    1.1296826   -3.0983832   -1.5374158    0.1098898   -3.0983832    1.5609674   476626 
 3335000    1.1302326   -3.0984063   -1.5370098   0.10400506   -3.0984063    1.5613966   476727 
 3336000    1.1294827   -3.0974639   -1.5374501   0.11467254   -3.0974639    1.5600137   476833 
 3337000    1.1304269   -3.0982961   -1.5371943   0.10638733   -3.0982961    1.5611017   476899 
 3338000    1.1304787   -3.0978302   -1.5369678   0.11200664   -3.0978302    1.5608624   476994 
 3339000    1.1319011   -3.0982516   -1.5356874   0.10350336   -3.0982516    1.5625642   477074 
 3340000    1.1301704   -3.0972271   -1.5373267   0.10460107   -3.0972271    1.5599004   477158 
 3341000    1.1301291   -3.0971609   -1.5376639   0.10358262   -3.0971609     1.559497   477264 
 3342000    1.1292761   -3.0958533   -1.5378044   0.10653773   -3.0958533    1.5580489   477347 
 3343000    1.1293466   -3.0957169   -1.5377894   0.10244575   -3.0957169    1.5579274   477414 
 3344000    1.1314475   -3.0972947   -1.5366913     0.101368   -3.0972947    1.5606034   477482 
 3345000    1.1307459   -3.0952753   -1.5358747    0.1072672   -3.0952753    1.5594006   477554 
 3346000    1.1303155   -3.0949457   -1.5363704   0.10876053   -3.0949457    1.5585753   477625 
 3347000    1.1332965   -3.0973657   -1.5349156   0.10303699   -3.0973657    1.5624501   477697 
 3348000    1.1329847   -3.0974405   -1.5357896   0.10146627   -3.0974405    1.5616509   477810 
 3349000    1.1321071   -3.0954975   -1.5354448   0.10919386   -3.0954975    1.5600527   477929 
 3350000    1.1333225   -3.0959826   -1.5345459   0.10936445   -3.0959826    1.5614367   478018 
 3351000    1.1345752   -3.0975105   -1.5346258   0.10530891   -3.0975105    1.5628847   478103 
 3352000    1.1360269   -3.0989619   -1.5343361   0.11004095   -3.0989619    1.5646259   478182 
 3353000    1.1340614   -3.0973362   -1.5356982   0.11215123   -3.0973362     1.561638   478268 
 3354000    1.1365827   -3.1008283   -1.5359539   0.10752619   -3.1008283    1.5648744   478340 
 3355000    1.1360553   -3.1004275   -1.5366062   0.10570536   -3.1004275    1.5638213   478440 
 3356000     1.137024   -3.1018921   -1.5369859   0.10790088   -3.1018921    1.5649061   478516 
 3357000     1.136096   -3.0996158   -1.5362124   0.11175576   -3.0996158    1.5634035   478585 
 3358000    1.1363586   -3.1009414   -1.5374445   0.11019737   -3.1009414    1.5634969   478667 
 3359000    1.1365303   -3.1016924   -1.5383021   0.10850529   -3.1016924    1.5633903   478772 
 3360000    1.1365227   -3.1012779   -1.5381429   0.10274994   -3.1012779     1.563135   478847 
 3361000    1.1358231   -3.1013079   -1.5394288    0.1059445   -3.1013079    1.5618791   478937 
 3362000    1.1369192   -3.1021203   -1.5390667   0.10517023   -3.1021203    1.5630536   479039 
 3363000    1.1356969   -3.0997514   -1.5386617   0.10759318   -3.0997514    1.5610897   479126 
 3364000    1.1363191   -3.1020004   -1.5402967   0.10515798   -3.1020004    1.5617037   479200 
 3365000    1.1363407   -3.1028701   -1.5414463   0.10601677   -3.1028701    1.5614238   479295 
 3366000    1.1367253   -3.1019815   -1.5402736   0.10875611   -3.1019815    1.5617079   479370 
 3367000     1.136703    -3.102882   -1.5414849   0.10805761    -3.102882    1.5613972   479456 
 3368000    1.1368296   -3.1021078   -1.5409339     0.105033   -3.1021078    1.5611739   479578 
 3369000    1.1362142   -3.1010026   -1.5410187   0.10693739   -3.1010026    1.5599838   479684 
 3370000    1.1388992   -3.1043133   -1.5408809   0.10633111   -3.1043133    1.5634324   479757 
 3371000    1.1378563   -3.1033526   -1.5416188     0.110793   -3.1033526    1.5617338   479839 
 3372000    1.1363305   -3.1007221   -1.5414042   0.10877224   -3.1007221    1.5593179   479938 
 3373000    1.1399019   -3.1046797   -1.5408976   0.10699656   -3.1046797    1.5637821   480072 
 3374000    1.1374068   -3.1023922   -1.5423515   0.11036506   -3.1023922    1.5600407   480170 
 3375000    1.1390855   -3.1034851   -1.5414575   0.10781144   -3.1034851    1.5620276   480267 
 3376000     1.141053   -3.1055685   -1.5411621   0.10778205   -3.1055685    1.5644064   480365 
 3377000    1.1384356   -3.1007735   -1.5402967   0.11674891   -3.1007735    1.5604768   480470 
 3378000    1.1397076   -3.1023011   -1.5403765   0.10609229   -3.1023011    1.5619246   480561 
 3379000    1.1403858   -3.1025293   -1.5399127   0.10562017   -3.1025293    1.5626166   480634 
 3380000    1.1397615   -3.1011584   -1.5397189   0.10821252   -3.1011584    1.5614395   480733 
 3381000    1.1410041   -3.1041202   -1.5412286   0.10751012   -3.1041202    1.5628916   480810 
 3382000    1.1396357   -3.1019195    -1.541175   0.10801576   -3.1019195    1.5607445   480894 
 3383000    1.1404707   -3.1030035   -1.5413168   0.10759738   -3.1030035    1.5616867   480956 
 3384000    1.1421209   -3.1047327   -1.5411082   0.10842915   -3.1047327    1.5636246   481055 
 3385000     1.143194   -3.1052855   -1.5404131   0.11068137   -3.1052855    1.5648724   481123 
 3386000    1.1424677   -3.1047917   -1.5411279   0.10354178   -3.1047917    1.5636637   481189 
 3387000    1.1427651   -3.1046284   -1.5408728    0.1064256   -3.1046284    1.5637556   481286 
 3388000    1.1420197   -3.1027489   -1.5403639   0.11134538   -3.1027489     1.562385   481394 
 3389000    1.1428536   -3.1039645   -1.5406757   0.11196852   -3.1039645    1.5632888   481467 
 3390000    1.1415049   -3.1025238   -1.5413328   0.11028439   -3.1025238     1.561191   481545 
 3391000    1.1433697   -3.1053686   -1.5418058   0.10231881   -3.1053686    1.5635628   481600 
 3392000    1.1442043   -3.1059408   -1.5414543   0.10474974   -3.1059408    1.5644865   481667 
 3393000    1.1436334   -3.1045608    -1.541173    0.1073792   -3.1045608    1.5633878   481765 
 3394000     1.144778   -3.1056971   -1.5410206   0.10897866   -3.1056971    1.5646765   481850 
 3395000    1.1429034     -3.10413   -1.5422038   0.10477449     -3.10413    1.5619263   481908 
 3396000    1.1437701   -3.1048223   -1.5419484   0.10788293   -3.1048223    1.5628739   481981 
 3397000    1.1437917   -3.1048197   -1.5421594   0.11029055   -3.1048197    1.5626603   482056 
 3398000    1.1452277   -3.1067225   -1.5423503   0.10856455   -3.1067225    1.5643722   482133 
 3399000    1.1433331    -3.103548   -1.5419256   0.11254602    -3.103548    1.5616224   482183 
 3400000    1.1451572    -3.105828   -1.5419997   0.11131579    -3.105828    1.5638283   482271 
 3401000    1.1445822   -3.1062342   -1.5434827    0.1085447   -3.1062342    1.5627515   482361 
 3402000    1.1462353   -3.1075297   -1.5428715   0.10190551   -3.1075297    1.5646582   482469 
 3403000     1.144906   -3.1051405   -1.5426174   0.10700145   -3.1051405    1.5625231   482568 
 3404000    1.1478775   -3.1084098   -1.5421494   0.11060569   -3.1084098    1.5662604   482666 
 3405000    1.1458121   -3.1062765    -1.543048   0.10739909   -3.1062765    1.5632285   482732 
 3406000     1.147539   -3.1090338   -1.5436601   0.10793763   -3.1090338    1.5653737   482797 
 3407000    1.1478645   -3.1093955   -1.5438211   0.10931142   -3.1093955    1.5655744   482872 
 3408000    1.1462687    -3.106271   -1.5431741   0.11377874    -3.106271    1.5630969   482965 
 3409000    1.1465405   -3.1068518   -1.5436852   0.10855329   -3.1068518    1.5631666   483058 
 3410000    1.1462979   -3.1064269   -1.5437982   0.10542171   -3.1064269    1.5626287   483122 
 3411000    1.1469125   -3.1065992    -1.543398   0.11683843   -3.1065992    1.5632013   483204 
 3412000    1.1474181   -3.1073253   -1.5436809       0.1155   -3.1073253    1.5636444   483280 
 3413000    1.1476623   -3.1078584    -1.544195   0.11220099   -3.1078584    1.5636634   483377 
 3414000    1.1472897   -3.1075957   -1.5447148   0.11278201   -3.1075957    1.5628809   483462 
 3415000    1.1498935   -3.1101604   -1.5440694   0.10856868   -3.1101604    1.5660909   483566 
 3416000    1.1499232    -3.109094   -1.5432993   0.11003188    -3.109094    1.5657947   483670 
 3417000    1.1489552   -3.1068063   -1.5425948   0.11276226   -3.1068063    1.5642114   483752 
 3418000    1.1503712   -3.1098192   -1.5439875   0.10396248   -3.1098192    1.5658317   483847 
 3419000    1.1484965   -3.1058122   -1.5427164   0.10750342   -3.1058122    1.5630958   483904 
 3420000     1.149677   -3.1068324   -1.5424177   0.11220744   -3.1068324    1.5644147   483993 
 3421000    1.1505118   -3.1067539    -1.541449   0.10829362   -3.1067539    1.5653049   484069 
 3422000    1.1499742   -3.1064718   -1.5421957   0.11412981   -3.1064718    1.5642762   484161 
 3423000    1.1511778    -3.107732   -1.5420192   0.11167474    -3.107732    1.5657128   484223 
 3424000    1.1507359   -3.1077337   -1.5428837    0.1098586   -3.1077337      1.56485   484304 
 3425000    1.1510486   -3.1075088   -1.5424758   0.10550865   -3.1075088     1.565033   484379 
 3426000    1.1514219   -3.1079446   -1.5426174   0.11199929   -3.1079446    1.5653273   484445 
 3427000    1.1514227   -3.1058795   -1.5408355   0.11472683   -3.1058795     1.565044   484533 
 3428000    1.1516872   -3.1045604   -1.5394766   0.11145648   -3.1045604    1.5650838   484632 
 3429000    1.1523722   -3.1063534   -1.5406102    0.1113987   -3.1063534    1.5657432   484716 
 3430000    1.1517944   -3.1062887   -1.5415985   0.11020138   -3.1062887    1.5646903   484799 
 3431000    1.1507766   -3.1051842   -1.5421056   0.11352431   -3.1051842    1.5630786   484870 
 3432000    1.1521091   -3.1070129    -1.542376   0.11035791   -3.1070129    1.5646368   484948 
 3433000    1.1519199   -3.1061616     -1.54203   0.11341294   -3.1061616    1.5641315   485025 
 3434000    1.1521005   -3.1067322   -1.5426327     0.106683   -3.1067322    1.5640995   485111 
 3435000    1.1516299   -3.1059976   -1.5426948   0.10933791   -3.1059976    1.5633027   485160 
 3436000    1.1505155   -3.1042996   -1.5427478   0.11084537   -3.1042996    1.5615518   485234 
 3437000    1.1544983   -3.1083179   -1.5416027   0.11016068   -3.1083179    1.5667152   485309 
 3438000    1.1540279   -3.1059078   -1.5400793   0.11107739   -3.1059078    1.5658286   485386 
 3439000     1.153557   -3.1051285   -1.5402001   0.10852726   -3.1051285    1.5649284   485467 
 3440000     1.153685   -3.1062016   -1.5413994   0.10977571   -3.1062016    1.5648022   485560 
 3441000    1.1539243    -3.105068   -1.5402635   0.11368567    -3.105068    1.5648045   485660 
 3442000    1.1527144   -3.1035462   -1.5405915   0.11586768   -3.1035462    1.5629547   485725 
 3443000    1.1536043   -3.1045061   -1.5406828   0.10983181   -3.1045061    1.5638233   485830 
 3444000    1.1550212   -3.1076256   -1.5421362    0.1122751   -3.1076256    1.5654894   485909 
 3445000    1.1537265   -3.1070103    -1.543472   0.11417215   -3.1070103    1.5635383   485970 
 3446000    1.1542743   -3.1069709   -1.5428865   0.10959539   -3.1069709    1.5640844   486031 
 3447000    1.1553724   -3.1084275   -1.5430903   0.11767868   -3.1084275    1.5653372   486104 
 3448000     1.156158   -3.1084066   -1.5422401   0.11455427   -3.1084066    1.5661665   486177 
 3449000    1.1570884   -3.1093976   -1.5421739    0.1126103   -3.1093976    1.5672237   486240 
 3450000     1.156386   -3.1080354    -1.542098   0.11722186   -3.1080354    1.5659374   486344 
 3451000    1.1577195   -3.1087636   -1.5412784   0.11297415   -3.1087636    1.5674853   486424 
 3452000    1.1578514   -3.1085764   -1.5412476   0.11530391   -3.1085764    1.5673288   486528 
 3453000    1.1586531   -3.1102661   -1.5421453   0.11078892   -3.1102661    1.5681207   486619 
 3454000    1.1572998   -3.1073275   -1.5412797   0.11389279   -3.1073275    1.5660478   486694 
 3455000    1.1562533   -3.1069536   -1.5426529    0.1182439   -3.1069536    1.5643007   486797 
 3456000     1.157386   -3.1085265   -1.5430183   0.11222684   -3.1085265    1.5655083   486898 
 3457000    1.1569887   -3.1067564   -1.5421293   0.11048842   -3.1067564    1.5646271   487005 
 3458000    1.1593276   -3.1093798   -1.5418182    0.1093024   -3.1093798    1.5675615   487076 
 3459000    1.1591955   -3.1085188   -1.5414674   0.10672587   -3.1085188    1.5670514   487179 
 3460000    1.1592672    -3.108313   -1.5414637   0.11051474    -3.108313    1.5668492   487272 
 3461000    1.1607322   -3.1098674   -1.5412537   0.10831627   -3.1098674    1.5686136   487339 
 3462000    1.1597176   -3.1089199   -1.5419892   0.10805896   -3.1089199    1.5669306   487436 
 3463000    1.1596119   -3.1091288   -1.5425948   0.10781332   -3.1091288     1.566534   487515 
 3464000    1.1588984   -3.1070587   -1.5416909   0.11511878   -3.1070587    1.5653678   487578 
 3465000    1.1603722   -3.1088875   -1.5417637   0.11363328   -3.1088875    1.5671238   487651 
 3466000    1.1597929   -3.1063529   -1.5401977   0.11469987   -3.1063529    1.5661552   487709 
 3467000    1.1598585   -3.1073897    -1.541406   0.11766132   -3.1073897    1.5659837   487790 
 3468000    1.1595724    -3.106285    -1.540925   0.11179967    -3.106285      1.56536   487864 
 3469000    1.1623201   -3.1099157   -1.5410844   0.10425734   -3.1099157    1.5688313   487938 
 3470000    1.1624135   -3.1091462   -1.5403752   0.11627726   -3.1091462    1.5687709   487996 
 3471000    1.1608648   -3.1078231   -1.5414153    0.1096457   -3.1078231    1.5664079   488081 
 3472000    1.1602423   -3.1071211   -1.5418386   0.11507266   -3.1071211    1.5652825   488170 
 3473000    1.1629128   -3.1103558   -1.5417019   0.10797195   -3.1103558    1.5686539   488242 
 3474000    1.1606535   -3.1065543   -1.5411916   0.10766707   -3.1065543    1.5653627   488318 
 3475000    1.1617771   -3.1084238   -1.5418345   0.10354425   -3.1084238    1.5665894   488408 
 3476000    1.1611218   -3.1085793   -1.5431139   0.11638026   -3.1085793    1.5654654   488483 
 3477000    1.1629763   -3.1117161   -1.5440201   0.10752254   -3.1117161     1.567696   488567 
 3478000    1.1612677   -3.1083563   -1.5431942   0.12069074   -3.1083563    1.5651622   488639 
 3479000    1.1646063   -3.1114924   -1.5420617   0.10904019   -3.1114924    1.5694307   488711 
 3480000    1.1647622   -3.1113397   -1.5420169   0.11029816   -3.1113397    1.5693229   488810 
 3481000    1.1624785   -3.1094587   -1.5434593    0.1151774   -3.1094587    1.5659994   488887 
 3482000    1.1642198   -3.1110428   -1.5428934   0.11433777   -3.1110428    1.5681495   488948 
 3483000    1.1640428   -3.1112404   -1.5435795   0.11239626   -3.1112404    1.5676609   489026 
 3484000    1.1653547   -3.1123874   -1.5431009   0.11193214   -3.1123874    1.5692865   489070 
 3485000    1.1646047   -3.1108501   -1.5427724   0.10921729   -3.1108501    1.5680777   489132 
 3486000    1.1656718   -3.1118526    -1.542476   0.11126977   -3.1118526    1.5693766   489175 
 3487000    1.1662258   -3.1131629   -1.5431753   0.11308573   -3.1131629    1.5699876   489217 
 3488000     1.167176   -3.1144559   -1.5434138   0.11506085   -3.1144559    1.5710421   489287 
 3489000    1.1655881   -3.1123147   -1.5437146    0.1177463   -3.1123147    1.5686001   489382 
 3490000    1.1655915   -3.1118381   -1.5434257   0.11214059   -3.1118381    1.5684125   489442 
 3491000    1.1643745   -3.1110827   -1.5444199   0.11796821   -3.1110827    1.5666628   489477 
 3492000    1.1652387   -3.1115045   -1.5439959   0.10904446   -3.1115045    1.5675086   489576 
 3493000    1.1651656   -3.1119786    -1.544754   0.11192936   -3.1119786    1.5672245   489634 
 3494000      1.16752   -3.1141669   -1.5439776   0.10969834   -3.1141669    1.5701893   489697 
 3495000    1.1661589   -3.1119136   -1.5437982   0.10983498   -3.1119136    1.5681154   489773 
 3496000     1.165336   -3.1104706   -1.5437336   0.11797754   -3.1104706     1.566737   489858 
 3497000    1.1647125   -3.1100522   -1.5443388   0.10815213   -3.1100522    1.5657134   489916 
 3498000    1.1658947   -3.1103381   -1.5433042   0.11392247   -3.1103381    1.5670338   490000 
 3499000    1.1663379   -3.1096947   -1.5422763   0.11478936   -3.1096947    1.5674184   490066 
 3500000    1.1675002    -3.112682   -1.5439353   0.11009948    -3.112682    1.5687467   490139 
 3501000    1.1654429    -3.109887   -1.5440994   0.11635428    -3.109887    1.5657876   490200 
 3502000    1.1666409   -3.1104566   -1.5433249   0.11144427   -3.1104566    1.5671317   490283 
 3503000    1.1662366   -3.1105687    -1.544239   0.10904997   -3.1105687    1.5663298   490364 
 3504000    1.1666321   -3.1099925   -1.5433232   0.11094006   -3.1099925    1.5666693   490424 
 3505000    1.1671177   -3.1109569   -1.5439549   0.10633303   -3.1109569     1.567002   490524 
 3506000     1.167516   -3.1103698   -1.5430569   0.11472083   -3.1103698     1.567313   490594 
 3507000    1.1680372    -3.110941   -1.5431073   0.10853575    -3.110941    1.5678337   490650 
 3508000    1.1683012   -3.1106658   -1.5426406   0.10744403   -3.1106658    1.5680251   490701 
 3509000    1.1675088   -3.1095662   -1.5428313   0.11497502   -3.1095662    1.5667349   490772 
 3510000    1.1676962   -3.1099963   -1.5432971   0.11106276   -3.1099963    1.5666991   490862 
 3511000    1.1696889   -3.1117056   -1.5425919   0.10773321   -3.1117056    1.5691138   490943 
 3512000    1.1689621   -3.1097793   -1.5418673   0.11845623   -3.1097793     1.567912   491014 
 3513000    1.1697491   -3.1125225     -1.54367   0.10756613   -3.1125225    1.5688526   491050 
 3514000    1.1712322   -3.1132191   -1.5425917   0.10782148   -3.1132191    1.5706274   491117 
 3515000    1.1694909   -3.1099602     -1.54192   0.11242189   -3.1099602    1.5680401   491196 
 3516000    1.1706976   -3.1111481   -1.5417265    0.1107206   -3.1111481    1.5694216   491270 
 3517000    1.1707994   -3.1118902   -1.5425653   0.11224856   -3.1118902    1.5693248   491343 
 3518000    1.1705511   -3.1100024   -1.5412754   0.11336224   -3.1100024     1.568727   491426 
 3519000    1.1710084   -3.1118976    -1.542794   0.11648655   -3.1118976    1.5691036   491500 
 3520000    1.1694961   -3.1093977   -1.5425914   0.11049538   -3.1093977    1.5668063   491585 
 3521000     1.173426   -3.1136791   -1.5418892   0.10798306   -3.1136791    1.5717899   491673 
 3522000    1.1700031   -3.1111368    -1.544171   0.11448744   -3.1111368    1.5669659   491748 
 3523000    1.1720567   -3.1128843   -1.5434681   0.11412654   -3.1128843    1.5694162   491842 
 3524000    1.1717582   -3.1124491   -1.5436048   0.11098169   -3.1124491    1.5688442   491896 
 3525000    1.1718241   -3.1132622   -1.5446166   0.11128188   -3.1132622    1.5686456   491986 
 3526000     1.172186   -3.1129536   -1.5439895   0.11384029   -3.1129536    1.5689641   492038 
 3527000    1.1730119   -3.1126759   -1.5428392   0.11194254   -3.1126759    1.5698366   492111 
 3528000    1.1735263   -3.1119515   -1.5416975    0.1114753   -3.1119515    1.5702539   492196 
 3529000    1.1754265   -3.1142509   -1.5417515   0.11054601   -3.1142509    1.5724993   492289 
 3530000    1.1731689    -3.111473   -1.5422298   0.11391928    -3.111473    1.5692432   492363 
 3531000    1.1750352   -3.1149152    -1.543383   0.10811753   -3.1149152    1.5715321   492428 
 3532000    1.1720978   -3.1114931   -1.5440837   0.11712985   -3.1114931    1.5674094   492489 
 3533000    1.1719112   -3.1114715    -1.544633   0.11358326   -3.1114715    1.5668385   492590 
 3534000    1.1733548   -3.1134585   -1.5448045   0.11091234   -3.1134585     1.568654   492626 
 3535000    1.1734093   -3.1137891   -1.5453297    0.1161382   -3.1137891    1.5684594   492710 
 3536000    1.1741263   -3.1145015   -1.5453416   0.11258565   -3.1145015    1.5691599   492791 
 3537000    1.1737369   -3.1142273    -1.545852   0.10886189   -3.1142273    1.5683753   492874 
 3538000    1.1751319   -3.1141833   -1.5442403   0.11434877   -3.1141833    1.5699431   492967 
 3539000    1.1763484   -3.1153545   -1.5440604   0.11471835   -3.1153545    1.5712941   493053 
 3540000    1.1765431   -3.1158232    -1.544543   0.11143073   -3.1158232    1.5712802   493139 
 3541000    1.1766393   -3.1151303   -1.5440085    0.1140692   -3.1151303    1.5711218   493229 
 3542000    1.1780741   -3.1151403   -1.5423481   0.11449173   -3.1151403    1.5727922   493306 
 3543000    1.1760721    -3.113252    -1.543368   0.11242296    -3.113252     1.569884   493380 
 3544000    1.1798686   -3.1180438   -1.5433794   0.11655601   -3.1180438    1.5746644   493470 
 3545000    1.1787273   -3.1155376   -1.5425717   0.11983634   -3.1155376    1.5729659   493525 
 3546000    1.1773559   -3.1143525   -1.5434554    0.1198951   -3.1143525    1.5708971   493600 
 3547000    1.1774833    -3.115122   -1.5442713   0.11216403    -3.115122    1.5708507   493668 
 3548000    1.1786996    -3.116468    -1.544224   0.11500314    -3.116468     1.572244   493740 
 3549000    1.1749144    -3.112179   -1.5452728   0.11341085    -3.112179    1.5669062   493831 
 3550000    1.1769593   -3.1143849   -1.5449707   0.11240041   -3.1143849    1.5694142   493900 
 3551000    1.1754973   -3.1143321   -1.5471054   0.11372804   -3.1143321    1.5672266   493975 
 3552000     1.177189    -3.114182    -1.545005   0.11822718    -3.114182    1.5691771   494071 
 3553000    1.1767196   -3.1138461   -1.5455201   0.11513632   -3.1138461     1.568326   494142 
 3554000    1.1761935   -3.1130218    -1.545711   0.11565233   -3.1130218    1.5673108   494241 
 3555000    1.1762334   -3.1139696   -1.5468213   0.11493718   -3.1139696    1.5671483   494309 
 3556000    1.1768536   -3.1127482   -1.5449955   0.11415013   -3.1127482    1.5677528   494379 
 3557000    1.1777122   -3.1143969   -1.5456654   0.10565705   -3.1143969    1.5687316   494431 
 3558000      1.17678   -3.1126877    -1.545442    0.1133821   -3.1126877    1.5672457   494508 
 3559000    1.1775914   -3.1134343   -1.5453364   0.11813192   -3.1134343     1.568098   494580 
 3560000    1.1776165   -3.1138553   -1.5459711   0.11005758   -3.1138553    1.5678842   494658 
 3561000     1.177796   -3.1152373    -1.547298   0.11589619   -3.1152373    1.5679393   494716 
 3562000    1.1792581   -3.1166118   -1.5469195   0.10414419   -3.1166118    1.5696922   494777 
 3563000    1.1778698   -3.1139817   -1.5463846   0.10933381   -3.1139817    1.5675971   494855 
 3564000    1.1781177   -3.1130484   -1.5454033   0.11357483   -3.1130484    1.5676452   494944 
 3565000    1.1791954   -3.1127355    -1.543834   0.11621906   -3.1127355    1.5689016   495000 
 3566000    1.1802102   -3.1148434   -1.5449278   0.11720851   -3.1148434    1.5699156   495106 
 3567000    1.1815718    -3.116582   -1.5451058   0.11203117    -3.116582    1.5714761   495185 
 3568000    1.1810841   -3.1152026   -1.5445243   0.11479659   -3.1152026    1.5706783   495232 
 3569000    1.1808417    -3.114583   -1.5444395   0.11334771    -3.114583    1.5701436   495299 
 3570000    1.1800025   -3.1135671   -1.5447326   0.11506936   -3.1135671    1.5688345   495360 
 3571000    1.1807302   -3.1135202    -1.543959   0.11905745   -3.1135202    1.5695612   495436 
 3572000    1.1816607   -3.1154629   -1.5448899   0.11410126   -3.1154629    1.5705731   495507 
 3573000     1.181517   -3.1147538   -1.5446095   0.11393001   -3.1147538    1.5701443   495582 
 3574000    1.1821062   -3.1148582   -1.5442604   0.11303779   -3.1148582    1.5705978   495686 
 3575000    1.1801637   -3.1138515   -1.5460023   0.11496419   -3.1138515    1.5678492   495739 
 3576000    1.1818072   -3.1160246   -1.5461725   0.11631554   -3.1160246    1.5698521   495796 
 3577000     1.182703   -3.1155925   -1.5448514   0.11495168   -3.1155925    1.5707411   495891 
 3578000    1.1832522   -3.1147855   -1.5435748    0.1185842   -3.1147855    1.5712107   495973 
 3579000    1.1836186   -3.1163275   -1.5448584   0.11762038   -3.1163275    1.5714691   496045 
 3580000    1.1832662   -3.1162535   -1.5455152   0.11329728   -3.1162535    1.5707383   496128 
 3581000    1.1851046   -3.1189501   -1.5460218   0.11200197   -3.1189501    1.5729283   496207 
 3582000    1.1827839    -3.116674   -1.5469998   0.11438383    -3.116674    1.5696742   496262 
 3583000    1.1839289   -3.1183497   -1.5474282   0.11175622   -3.1183497    1.5709215   496348 
 3584000    1.1840944   -3.1181729   -1.5472723   0.11220157   -3.1181729    1.5709006   496424 
 3585000    1.1830371   -3.1173322   -1.5479829   0.11203729   -3.1173322    1.5693493   496471 
 3586000    1.1817284   -3.1166541   -1.5492303   0.10899558   -3.1166541    1.5674238   496531 
 3587000    1.1830158    -3.117352   -1.5484386   0.11465816    -3.117352    1.5689134   496600 
 3588000    1.1824012   -3.1168646   -1.5489116   0.11594432   -3.1168646     1.567953   496646 
 3589000    1.1838406   -3.1182014   -1.5486019   0.11139959   -3.1182014    1.5695995   496729 
 3590000    1.1844271   -3.1202957   -1.5501178   0.11555978   -3.1202957     1.570178   496792 
 3591000    1.1852871   -3.1213289   -1.5501817   0.10901637   -3.1213289    1.5711473   496846 
 3592000    1.1831881   -3.1190108     -1.55087   0.11207243   -3.1190108    1.5681409   496917 
 3593000    1.1850549   -3.1204303   -1.5500618   0.11490191   -3.1204303    1.5703685   496995 
 3594000    1.1840388   -3.1198438   -1.5509733   0.11236491   -3.1198438    1.5688705   497043 
 3595000    1.1865391   -3.1223302   -1.5504314   0.11707395   -3.1223302    1.5718988   497133 
 3596000    1.1851041   -3.1202745   -1.5505357   0.11201489   -3.1202745    1.5697388   497215 
 3597000    1.1848916   -3.1203626   -1.5511387   0.11306816   -3.1203626    1.5692238   497289 
 3598000    1.1859715   -3.1219842   -1.5515733   0.11528342   -3.1219842    1.5704109   497366 
 3599000    1.1861695   -3.1222215   -1.5518043    0.1154696   -3.1222215    1.5704172   497447 
 3600000    1.1855504   -3.1215191   -1.5521392   0.11443299   -3.1215191    1.5693799   497516 
 3601000     1.186938   -3.1240358   -1.5530178   0.11513594   -3.1240358    1.5710179   497579 
 3602000     1.186201   -3.1229999   -1.5532195   0.11764542   -3.1229999    1.5697805   497662 
 3603000    1.1851617   -3.1206198   -1.5524195   0.11408254   -3.1206198    1.5682003   497727 
 3604000    1.1855282    -3.121852   -1.5533369   0.11223345    -3.121852    1.5685152   497781 
 3605000    1.1865779   -3.1214363   -1.5517153   0.12012127   -3.1214363     1.569721   497839 
 3606000    1.1867278   -3.1223318   -1.5526679    0.1170992   -3.1223318     1.569664   497920 
 3607000    1.1876728   -3.1229685   -1.5522881   0.11961565   -3.1229685    1.5706804   497994 
 3608000    1.1874883   -3.1214178   -1.5512335    0.1191614   -3.1214178    1.5701842   498074 
 3609000    1.1891554   -3.1216681   -1.5495542    0.1149705   -3.1216681    1.5721139   498161 
 3610000    1.1891377   -3.1216251   -1.5497491   0.11699696   -3.1216251     1.571876   498229 
 3611000    1.1897051   -3.1233229   -1.5509935   0.11352321   -3.1233229    1.5723293   498323 
 3612000    1.1881984    -3.120512   -1.5504511   0.11983627    -3.120512    1.5700609   498411 
 3613000     1.189609   -3.1211693   -1.5493707   0.11295823   -3.1211693    1.5717986   498451 
 3614000    1.1893587   -3.1206723   -1.5494314   0.11296658   -3.1206723    1.5712409   498523 
 3615000    1.1891899   -3.1190205   -1.5483018   0.11751274   -3.1190205    1.5707187   498618 
 3616000    1.1896233   -3.1197923   -1.5486935     0.114624   -3.1197923    1.5710988   498679 
 3617000    1.1903853   -3.1208188   -1.5489563    0.1140808   -3.1208188    1.5718626   498756 
 3618000    1.1911626   -3.1208276    -1.548191   0.11358043   -3.1208276    1.5726366   498836 
 3619000    1.1904739   -3.1204608   -1.5489256   0.10913541   -3.1204608    1.5715352   498897 
 3620000    1.1904032    -3.120336   -1.5490453   0.11283843    -3.120336    1.5712907   498945 
 3621000    1.1899008   -3.1203545   -1.5498749   0.10703899   -3.1203545    1.5704796   498992 
 3622000    1.1905732   -3.1206868   -1.5494835   0.10810778   -3.1206868    1.5712033   499044 
 3623000    1.1910189   -3.1211541   -1.5495578   0.11303405   -3.1211541    1.5715963   499106 
 3624000    1.1904091   -3.1205197   -1.5499075   0.11193495   -3.1205197    1.5706122   499163 
 3625000    1.1905941   -3.1213146   -1.5506974   0.11499513   -3.1213146    1.5706173   499239 
 3626000    1.1908658   -3.1216826   -1.5509838   0.11361038   -3.1216826    1.5706987   499327 
 3627000    1.1910205   -3.1206261   -1.5499686   0.11511168   -3.1206261    1.5706575   499405 
 3628000    1.1921649   -3.1224731   -1.5505017   0.11022392   -3.1224731    1.5719714   499467 
 3629000    1.1923048   -3.1231251   -1.5512303   0.11512209   -3.1231251    1.5718948   499550 
 3630000    1.1910343   -3.1223984   -1.5524647   0.11726838   -3.1223984    1.5699337   499641 
 3631000    1.1906439   -3.1215106   -1.5523553   0.12073957   -3.1215106    1.5691553   499725 
 3632000    1.1927713   -3.1235674   -1.5518411   0.10969958   -3.1235674    1.5717263   499799 
 3633000     1.191491   -3.1226043   -1.5527913   0.11494609   -3.1226043    1.5698131   499871 
 3634000    1.1931034   -3.1242919   -1.5525588   0.11985612   -3.1242919    1.5717331   499936 
 3635000    1.1927771   -3.1239706   -1.5529062   0.11197626   -3.1239706    1.5710645   500012 
 3636000    1.1937848   -3.1243268    -1.552127   0.11942352   -3.1243268    1.5721999   500073 
 3637000    1.1934531   -3.1240624   -1.5525476   0.11671169   -3.1240624    1.5715148   500152 
 3638000    1.1932018   -3.1268486   -1.5558531   0.11431076   -3.1268486    1.5709954   500212 
 3639000    1.1935676   -3.1264166    -1.555172   0.11359348   -3.1264166    1.5712446   500286 
 3640000    1.1956651   -3.1279357   -1.5542225   0.11900353   -3.1279357    1.5737132   500379 
 3641000    1.1935275   -3.1250172   -1.5543716   0.12062787   -3.1250172    1.5706456   500460 
 3642000    1.1949038   -3.1274287   -1.5552139   0.11346091   -3.1274287    1.5722148   500537 
 3643000    1.1954355   -3.1271247   -1.5543988   0.11449198   -3.1271247    1.5727259   500597 
 3644000    1.1935617   -3.1252954   -1.5552668   0.11541255   -3.1252954    1.5700287   500671 
 3645000    1.1954991   -3.1278012      -1.5554    0.1158825   -3.1278012    1.5724012   500727 
 3646000    1.1953182   -3.1270482   -1.5551046   0.12211251   -3.1270482    1.5719436   500797 
 3647000    1.1961557   -3.1290272   -1.5562021   0.10994109   -3.1290272    1.5728251   500867 
 3648000    1.1964598   -3.1282104   -1.5551833   0.11358295   -3.1282104    1.5730271   500930 
 3649000    1.1948691   -3.1251843   -1.5544366   0.11430758   -3.1251843    1.5707476   500990 
 3650000    1.1953227   -3.1242007   -1.5530261   0.11778875   -3.1242007    1.5711746   501044 
 3651000    1.1961443   -3.1273369   -1.5553302   0.11596962   -3.1273369    1.5720067   501123 
 3652000    1.1961256   -3.1262511   -1.5544322   0.11441517   -3.1262511    1.5718189   501175 
 3653000    1.1959959   -3.1259874   -1.5546023   0.12074135   -3.1259874    1.5713851   501259 
 3654000    1.1964729   -3.1252362   -1.5534156   0.12125763   -3.1252362    1.5718206   501320 
 3655000    1.1973045   -3.1250195    -1.552395   0.11936945   -3.1250195    1.5726245   501412 
 3656000    1.1969464   -3.1246434   -1.5526774    0.1187195   -3.1246434     1.571966   501472 
 3657000    1.1976009    -3.127343    -1.554715   0.11651089    -3.127343     1.572628   501535 
 3658000    1.1966741   -3.1253147   -1.5542138   0.11400292   -3.1253147    1.5711009   501634 
 3659000    1.1980654   -3.1265027   -1.5537853   0.11437979   -3.1265027    1.5727174   501701 
 3660000    1.1988676   -3.1259737   -1.5523726   0.11804005   -3.1259737    1.5736011   501755 
 3661000    1.1977976   -3.1243626   -1.5523351    0.1185579   -3.1243626    1.5720275   501809 
 3662000    1.1990313   -3.1259695    -1.552602   0.11284074   -3.1259695    1.5733675   501898 
 3663000    1.1987477   -3.1251087   -1.5523263   0.11547388   -3.1251087    1.5727824   501966 
 3664000    1.1982026   -3.1249589    -1.553017   0.11454504   -3.1249589    1.5719419   502006 
 3665000    1.1985321   -3.1253944   -1.5532457   0.11453795   -3.1253944    1.5721487   502078 
 3666000    1.1964403    -3.121847   -1.5526297    0.1137528    -3.121847    1.5692173   502138 
 3667000    1.1983379   -3.1251128   -1.5536101   0.11351877   -3.1251128    1.5715027   502203 
 3668000    1.1983197   -3.1240302   -1.5527641   0.11392919   -3.1240302    1.5712661   502271 
 3669000    1.1980958   -3.1241911   -1.5535189   0.11617342   -3.1241911    1.5706723   502367 
 3670000    1.1992202   -3.1258836   -1.5539343   0.12095724   -3.1258836    1.5719493   502430 
 3671000    1.1972165   -3.1233489   -1.5542136   0.11314815   -3.1233489    1.5691354   502490 
 3672000    1.1991531   -3.1254455   -1.5540158   0.11839004   -3.1254455    1.5714296   502568 
 3673000    1.1982439   -3.1241801   -1.5542138   0.11471989   -3.1241801    1.5699663   502655 
 3674000    1.1991642   -3.1271485   -1.5561452   0.11419631   -3.1271485    1.5710034   502709 
 3675000    1.2002972   -3.1272091   -1.5549684   0.11326855   -3.1272091    1.5722407   502788 
 3676000    1.2008534   -3.1275636   -1.5548289   0.11574857   -3.1275636    1.5727347   502863 
 3677000    1.1996581   -3.1269736   -1.5561262   0.11815808   -3.1269736    1.5708473   502966 
 3678000    1.2003134   -3.1271452   -1.5556304   0.11473793   -3.1271452    1.5715149   503027 
 3679000    1.2020899   -3.1287119    -1.555137   0.11629925   -3.1287119    1.5735749   503112 
 3680000    1.2018794   -3.1279282   -1.5547821   0.11679821   -3.1279282    1.5731461   503161 
 3681000    1.2012594   -3.1285469   -1.5563529   0.11461679   -3.1285469     1.572194   503206 
 3682000    1.2015241   -3.1285286   -1.5562444   0.11877442   -3.1285286    1.5722842   503288 
 3683000    1.2019139    -3.128485    -1.555922   0.11855263    -3.128485     1.572563   503362 
 3684000    1.2012454   -3.1293577   -1.5577536   0.11193379   -3.1293577    1.5716041   503389 
 3685000    1.2006164   -3.1280817   -1.5575906   0.11087893   -3.1280817    1.5704911   503482 
 3686000    1.2029883   -3.1297725   -1.5564164   0.11813876   -3.1297725    1.5733561   503558 
 3687000    1.2028191   -3.1292582   -1.5563827   0.11731665   -3.1292582    1.5728755   503641 
 3688000    1.2056507   -3.1333988   -1.5570959   0.11430738   -3.1333988    1.5763029   503729 
 3689000    1.2029945   -3.1293377   -1.5568073   0.11997656   -3.1293377    1.5725304   503825 
 3690000    1.2040374    -3.131717   -1.5580045   0.11131948    -3.131717    1.5737126   503883 
 3691000    1.2022584   -3.1291668   -1.5580227   0.11533552   -3.1291668    1.5711442   503961 
 3692000    1.2059252   -3.1321983   -1.5564092   0.11059887   -3.1321983    1.5757891   504008 
 3693000    1.2028417   -3.1296566   -1.5580807   0.11145787   -3.1296566    1.5715759   504067 
 3694000    1.2048358   -3.1317725   -1.5577817   0.11586931   -3.1317725    1.5739907   504128 
 3695000     1.203731   -3.1305798   -1.5582819   0.11162023   -3.1305798    1.5722979   504208 
 3696000    1.2032258   -3.1293585    -1.557895   0.11963509   -3.1293585    1.5714635   504264 
 3697000    1.2035841   -3.1299606   -1.5582567   0.12364683   -3.1299606     1.571704   504337 
 3698000    1.2055546   -3.1330706   -1.5589963   0.11321582   -3.1330706    1.5740743   504402 
 3699000    1.2038591    -3.129699   -1.5580877   0.11465624    -3.129699    1.5716113   504482 
 3700000    1.2043962   -3.1317323   -1.5596847   0.11422782   -3.1317323    1.5720476   504567 
 3701000    1.2045878   -3.1322452   -1.5601688   0.11371777   -3.1322452    1.5720764   504638 
 3702000    1.2056978   -3.1333736   -1.5601167   0.11173819   -3.1333736    1.5732569   504724 
 3703000    1.2062145   -3.1326537   -1.5588566   0.11582192   -3.1326537     1.573797   504767 
 3704000    1.2045842   -3.1296324    -1.558171    0.1160902   -3.1296324    1.5714613   504834 
 3705000    1.2068338   -3.1332226    -1.559051   0.11375985   -3.1332226    1.5741716   504906 
 3706000    1.2069731   -3.1306535   -1.5565465   0.11724141   -3.1306535     1.574107   504985 
 3707000    1.2076192   -3.1316244   -1.5569056   0.12040628   -3.1316244    1.5747188   505059 
 3708000    1.2080599   -3.1322051   -1.5571767   0.11635728   -3.1322051    1.5750284   505144 
 3709000    1.2074681   -3.1320235   -1.5579474   0.12076143   -3.1320235    1.5740761   505202 
 3710000    1.2064519   -3.1305656   -1.5580321   0.12181418   -3.1305656    1.5725335   505272 
 3711000    1.2080001    -3.132624   -1.5582875   0.11542743    -3.132624    1.5743365   505341 
 3712000    1.2075811   -3.1325101   -1.5588878   0.11611404   -3.1325101    1.5736223   505395 
 3713000    1.2078005    -3.131642    -1.557986   0.11593842    -3.131642     1.573656   505476 
 3714000    1.2090921   -3.1332579   -1.5580561   0.11678945   -3.1332579    1.5752017   505520 
 3715000    1.2080435   -3.1323063   -1.5586886   0.12460677   -3.1323063    1.5736176   505590 
 3716000    1.2079534   -3.1319753   -1.5587208   0.11761589   -3.1319753    1.5732545   505669 
 3717000    1.2072999   -3.1318919   -1.5596938   0.11714348   -3.1318919    1.5721981   505735 
 3718000    1.2088169   -3.1328917   -1.5588674    0.1167737   -3.1328917    1.5740243   505783 
 3719000    1.2085709   -3.1320999   -1.5586014   0.11681091   -3.1320999    1.5734986   505849 
 3720000    1.2078657   -3.1322296   -1.5598418   0.11264206   -3.1322296    1.5723878   505911 
 3721000    1.2083957    -3.133208   -1.5603386   0.11174253    -3.133208    1.5728694   505978 
 3722000    1.2091466     -3.13454   -1.5609077   0.10839754     -3.13454    1.5736322   506047 
 3723000    1.2085448   -3.1330479   -1.5604009   0.11164679   -3.1330479     1.572647   506112 
 3724000    1.2103887   -3.1353177   -1.5605295   0.11184514   -3.1353177    1.5747882   506195 
 3725000    1.2092219   -3.1333429   -1.5602623   0.11544515   -3.1333429    1.5730806   506256 
 3726000    1.2106626   -3.1357034   -1.5608793   0.11236552   -3.1357034    1.5748241   506298 
 3727000    1.2099472   -3.1347654   -1.5611268   0.11129257   -3.1347654    1.5736386   506380 
 3728000    1.2092223   -3.1329945   -1.5604943   0.11757358   -3.1329945    1.5725002   506443 
 3729000    1.2119514   -3.1352912   -1.5595002   0.11442494   -3.1352912     1.575791   506526 
 3730000    1.2107698   -3.1325869   -1.5585343   0.11862554   -3.1325869    1.5740527   506591 
 3731000    1.2115771   -3.1334434    -1.558649   0.11738988   -3.1334434    1.5747944   506690 
 3732000     1.211116   -3.1331617   -1.5591997   0.11758424   -3.1331617    1.5739621   506765 
 3733000    1.2120875   -3.1351279   -1.5601301   0.11476562   -3.1351279    1.5749977   506838 
 3734000    1.2119698   -3.1342324    -1.559605    0.1175624   -3.1342324    1.5746274   506908 
 3735000    1.2106637   -3.1333535   -1.5606433   0.11581562   -3.1333535    1.5727102   506979 
 3736000    1.2120889   -3.1356417   -1.5612851   0.11654584   -3.1356417    1.5743566   507045 
 3737000    1.2130424   -3.1357452   -1.5602869   0.11808678   -3.1357452    1.5754583   507089 
 3738000    1.2129497   -3.1352818   -1.5600184   0.12106536   -3.1352818    1.5752633   507113 
 3739000    1.2134744   -3.1361333   -1.5603531   0.11916381   -3.1361333    1.5757802   507166 
 3740000    1.2120154    -3.134097   -1.5604535    0.1234023    -3.134097    1.5736435   507244 
 3741000    1.2106036   -3.1334344   -1.5617509   0.12127897   -3.1334344    1.5716835   507285 
 3742000    1.2115234   -3.1349816   -1.5622684   0.11363043   -3.1349816    1.5727132   507338 
 3743000    1.2120058   -3.1357337   -1.5626423   0.11525631   -3.1357337    1.5730914   507418 
 3744000    1.2127218   -3.1368526   -1.5630738   0.11509316   -3.1368526    1.5737788   507496 
 3745000    1.2130695   -3.1357391   -1.5616827   0.11859878   -3.1357391    1.5740564   507552 
 3746000    1.2139555   -3.1361335   -1.5610921   0.11517761   -3.1361335    1.5750415   507605 
 3747000    1.2135299   -3.1357952   -1.5614547   0.11469244   -3.1357952    1.5743405   507653 
 3748000    1.2141883   -3.1359306   -1.5609532   0.11916108   -3.1359306    1.5749774   507723 
 3749000    1.2145953    -3.136114   -1.5608444   0.11473764    -3.136114    1.5752696   507799 
 3750000    1.2155614   -3.1378493   -1.5615472   0.11420063   -3.1378493    1.5763022   507870 
 3751000    1.2139627   -3.1365712   -1.5625344   0.11592052   -3.1365712    1.5740368   507932 
 3752000    1.2162886   -3.1385124   -1.5616212   0.11617521   -3.1385124    1.5768912   507984 
 3753000    1.2156553   -3.1378747   -1.5619845   0.11612383   -3.1378747    1.5758902   508042 
 3754000    1.2143131   -3.1365102   -1.5624932   0.11526193   -3.1365102    1.5740171   508085 
 3755000    1.2148563   -3.1368438   -1.5623117   0.11912622   -3.1368438    1.5745321   508146 
 3756000    1.2156156   -3.1369785   -1.5615769   0.11395215   -3.1369785    1.5754016   508183 
 3757000    1.2161847   -3.1400964   -1.5641497   0.11820124   -3.1400964    1.5759467   508245 
 3758000    1.2139843   -3.1360224   -1.5630847   0.11659721   -3.1360224    1.5729377   508296 
 3759000    1.2139947   -3.1350476   -1.5622264   0.11764794   -3.1350476    1.5728212   508338 
 3760000     1.213889   -3.1354998   -1.5630414   0.11787046   -3.1354998    1.5724584   508411 
 3761000    1.2161699   -3.1376773   -1.5624904   0.11752116   -3.1376773    1.5751869   508484 
 3762000    1.2173985   -3.1385741   -1.5618982   0.11596276   -3.1385741    1.5766759   508517 
 3763000    1.2152572   -3.1375832   -1.5638818    0.1175805   -3.1375832    1.5737015   508582 
 3764000    1.2166818   -3.1386921   -1.5634153   0.11524554   -3.1386921    1.5752768   508669 
 3765000    1.2169268   -3.1383813   -1.5629608   0.12239017   -3.1383813    1.5754206   508725 
 3766000     1.217175    -3.137928   -1.5623874   0.11738325    -3.137928    1.5755405   508790 
 3767000    1.2186222    -3.139586   -1.5624666   0.11882883    -3.139586    1.5771194   508885 
 3768000    1.2176284   -3.1390566   -1.5634494    0.1158454   -3.1390566    1.5756072   508958 
 3769000     1.218386   -3.1396721    -1.563193   0.12117714   -3.1396721    1.5764791   508993 
[...]
 7812000    1.4119667   -3.5586145   -2.0260945    0.1576947   -3.5586145    1.5325201   606783 
 7813000    1.4113844   -3.5589001   -2.0270423   0.15853957   -3.5589001    1.5318578   606795 
 7814000    1.4110407   -3.5585535   -2.0270965   0.15916699   -3.5585535     1.531457   606806 
 7815000    1.4120964    -3.559029    -2.026459   0.15805164    -3.559029      1.53257   606819 
 7816000    1.4124626   -3.5588744   -2.0259549   0.15473227   -3.5588744    1.5329194   606838 
 7817000    1.4143242   -3.5609789   -2.0260594   0.15393461   -3.5609789    1.5349195   606846 
 7818000    1.4126489   -3.5594674   -2.0263837   0.16021598   -3.5594674    1.5330837   606853 
 7819000    1.4126761   -3.5583785   -2.0253108   0.15744553   -3.5583785    1.5330677   606871 
 7820000    1.4126567   -3.5587157   -2.0257094   0.15925122   -3.5587157    1.5330063   606887 
 7821000    1.4126861   -3.5583365   -2.0253134   0.15975788   -3.5583365    1.5330231   606893 
 7822000    1.4132974   -3.5589684    -2.025277   0.16012261   -3.5589684    1.5336914   606891 
 7823000    1.4113408   -3.5570026   -2.0254622   0.16384465   -3.5570026    1.5315405   606902 
 7824000    1.4129951    -3.558553   -2.0252579   0.15802466    -3.558553    1.5332952   606918 
 7825000    1.4128566   -3.5596695   -2.0265398   0.15526421   -3.5596695    1.5331297   606924 
 7826000    1.4126931   -3.5585641    -2.025622   0.16290935   -3.5585641    1.5329422   606928 
 7827000    1.4133062   -3.5595753   -2.0259829   0.15544922   -3.5595753    1.5335924   606934 
 7828000    1.4125515   -3.5584131   -2.0256523   0.16029812   -3.5584131    1.5327608   606939 
 7829000    1.4125767   -3.5592985   -2.0265508   0.15558694   -3.5592985    1.5327477   606955 
 7830000    1.4113177   -3.5581254   -2.0267791   0.16171004   -3.5581254    1.5313462   606969 
 7831000     1.411271   -3.5582099   -2.0269219   0.15324331   -3.5582099     1.531288   606972 
 7832000    1.4121025   -3.5585243   -2.0263467   0.15607076   -3.5585243    1.5321777   606977 
 7833000    1.4140827    -3.559503   -2.0252097   0.15896838    -3.559503    1.5342933   606990 
 7834000    1.4148834   -3.5605483   -2.0254165   0.15811711   -3.5605483    1.5351318   607002 
 7835000    1.4140781   -3.5597775    -2.025527   0.16190755   -3.5597775    1.5342505   607005 
 7836000    1.4143793   -3.5602243   -2.0256572    0.1614404   -3.5602243    1.5345672   607009 
 7837000    1.4143123   -3.5605328   -2.0260763   0.16190992   -3.5605328    1.5344565   607024 
 7838000    1.4137565   -3.5599226   -2.0261044   0.15709791   -3.5599226    1.5338181   607038 
 7839000    1.4110953   -3.5577774   -2.0268894   0.16037572   -3.5577774     1.530888   607055 
 7840000    1.4123764   -3.5599939   -2.0277312   0.16080814   -3.5599939    1.5322628   607061 
 7841000    1.4115421    -3.559228    -2.027898   0.16168927    -3.559228    1.5313299   607072 
 7842000    1.4140656    -3.560217   -2.0261722   0.15530324    -3.560217    1.5340448   607081 
 7843000    1.4137492   -3.5605715   -2.0269104   0.15697698   -3.5605715    1.5336611   607097 
 7844000    1.4122255   -3.5586366   -2.0266637   0.16040803   -3.5586366    1.5319729   607111 
 7845000    1.4125212    -3.559133   -2.0268797   0.16617552    -3.559133    1.5322533   607127 
 7846000    1.4148657   -3.5606013   -2.0258478    0.1587926   -3.5606013    1.5347535   607144 
 7847000    1.4135805   -3.5593717   -2.0260553   0.16485274   -3.5593717    1.5333165   607161 
 7848000     1.412683   -3.5584204   -2.0261329   0.16127399   -3.5584204    1.5322875   607183 
 7849000    1.4127793   -3.5591042   -2.0267451   0.16518388   -3.5591042    1.5323591   607196 
 7850000    1.4135965   -3.5607364   -2.0275389   0.15973308   -3.5607364    1.5331975   607215 
 7851000    1.4124205   -3.5595748   -2.0276831   0.16009178   -3.5595748    1.5318917   607227 
 7852000    1.4135792    -3.559889   -2.0267532   0.16283422    -3.559889    1.5331358   607232 
 7853000    1.4129896   -3.5597447   -2.0272837    0.1595042   -3.5597447     1.532461   607246 
 7854000    1.4137383   -3.5601254   -2.0268928   0.15953227   -3.5601254    1.5332326   607262 
 7855000    1.4143247   -3.5607979   -2.0269747   0.15978228   -3.5607979    1.5338232   607280 
 7856000    1.4131909   -3.5594947   -2.0269289   0.15999221   -3.5594947    1.5325657   607291 
 7857000    1.4134786   -3.5597444   -2.0268843   0.15908117   -3.5597444    1.5328601   607298 
 7858000    1.4131069   -3.5588191   -2.0263848   0.15789073   -3.5588191    1.5324343   607307 
 7859000    1.4131588   -3.5599195   -2.0274566   0.16245786   -3.5599195    1.5324629   607318 
 7860000    1.4129646   -3.5594842   -2.0272548   0.16475986   -3.5594842    1.5322295   607327 
 7861000    1.4131797   -3.5599899    -2.027565   0.16334341   -3.5599899    1.5324249   607342 
 7862000    1.4147067   -3.5605018   -2.0264766   0.16139154   -3.5605018    1.5340252   607364 
 7863000     1.413465   -3.5607881   -2.0281371   0.15719855   -3.5607881     1.532651   607375 
 7864000    1.4133095   -3.5610849   -2.0286277   0.15669687   -3.5610849    1.5324572   607385 
 7865000    1.4135105    -3.561933   -2.0292856   0.15881639    -3.561933    1.5326473   607396 
 7866000    1.4131087   -3.5612454   -2.0290565    0.1574535   -3.5612454     1.532189   607405 
 7867000    1.4132033   -3.5616186   -2.0293675    0.1630391   -3.5616186    1.5322512   607421 
 7868000     1.414347   -3.5632932   -2.0298373   0.15926821   -3.5632932    1.5334559   607435 
 7869000    1.4151285   -3.5614366   -2.0271283   0.16733439   -3.5614366    1.5343083   607433 
 7870000    1.4155407   -3.5621458   -2.0274134   0.15923942   -3.5621458    1.5347324   607442 
 7871000    1.4141653   -3.5600097    -2.026766    0.1624215   -3.5600097    1.5332437   607441 
 7872000    1.4144415   -3.5610311   -2.0275409   0.16108253   -3.5610311    1.5334902   607462 
 7873000     1.413795   -3.5613565   -2.0286102   0.16021001   -3.5613565    1.5327464   607479 
 7874000    1.4155713   -3.5626576   -2.0280107    0.1556228   -3.5626576    1.5346468   607489 
 7875000    1.4134091   -3.5598495   -2.0275694   0.16710185   -3.5598495    1.5322801   607498 
 7876000    1.4151457   -3.5622044   -2.0280542   0.15980972   -3.5622044    1.5341501   607503 
 7877000    1.4144803   -3.5616827   -2.0282841   0.15904889   -3.5616827    1.5333985   607515 
 7878000    1.4153135   -3.5620786   -2.0278072   0.15922462   -3.5620786    1.5342714   607527 
 7879000    1.4133194   -3.5603177   -2.0282559   0.16082016   -3.5603177    1.5320618   607546 
 7880000    1.4139316   -3.5611126   -2.0283948    0.1590421   -3.5611126    1.5327179   607549 
 7881000    1.4153772   -3.5618935   -2.0276515   0.15852155   -3.5618935     1.534242   607566 
 7882000    1.4142796   -3.5612342   -2.0282223    0.1622308   -3.5612342    1.5330119   607582 
 7883000    1.4148449   -3.5604932   -2.0269141   0.16262429   -3.5604932    1.5335791   607600 
 7884000    1.4159685   -3.5617761   -2.0269866   0.16342458   -3.5617761    1.5347895   607603 
 7885000    1.4169148    -3.562787   -2.0270021   0.15951498    -3.562787    1.5357849   607615 
 7886000     1.415247   -3.5613771   -2.0274303   0.15847033   -3.5613771    1.5339469   607627 
 7887000    1.4151373   -3.5608949   -2.0271023   0.15814535   -3.5608949    1.5337927   607641 
 7888000    1.4157615   -3.5616174   -2.0271685   0.16241308   -3.5616174    1.5344489   607649 
 7889000    1.4153868   -3.5617699   -2.0277195   0.16567972   -3.5617699    1.5340504   607646 
 7890000    1.4166209    -3.563293   -2.0279504   0.15959288    -3.563293    1.5353425   607664 
 7891000    1.4150422   -3.5631477   -2.0295415   0.16179509   -3.5631477    1.5336062   607674 
 7892000    1.4149653   -3.5632066   -2.0297292   0.15580626   -3.5632066    1.5334774   607692 
 7893000    1.4145703   -3.5628359   -2.0298219   0.15939494   -3.5628359     1.533014   607706 
 7894000    1.4155917   -3.5642376   -2.0301318   0.16436178   -3.5642376    1.5341059   607712 
 7895000     1.415139   -3.5616882   -2.0280932   0.16727287   -3.5616882     1.533595   607720 
 7896000    1.4167672   -3.5632114   -2.0278847    0.1572134   -3.5632114    1.5353267   607733 
 7897000    1.4159838   -3.5625687   -2.0280985   0.16334076   -3.5625687    1.5344702   607736 
 7898000    1.4157999   -3.5622705   -2.0280223   0.16166347   -3.5622705    1.5342482   607745 
 7899000    1.4158454    -3.562642   -2.0283799   0.16338658    -3.562642    1.5342622   607759 
 7900000    1.4147383   -3.5622155   -2.0291783   0.16310344   -3.5622155    1.5330372   607769 
 7901000    1.4150249   -3.5624649   -2.0291272    0.1673296   -3.5624649    1.5333377   607773 
 7902000    1.4152198   -3.5628714    -2.029373   0.16269823   -3.5628714    1.5334984   607793 
 7903000    1.4141419   -3.5624863   -2.0301938   0.15527359   -3.5624863    1.5322926   607808 
 7904000    1.4143249   -3.5625903   -2.0301448   0.16053078   -3.5625903    1.5324455   607826 
 7905000    1.4150266   -3.5624426   -2.0292848   0.16174193   -3.5624426    1.5331579   607845 
 7906000     1.414912   -3.5625371   -2.0295109   0.16634322   -3.5625371    1.5330262   607848 
 7907000    1.4155662   -3.5626533   -2.0289588   0.15993151   -3.5626533    1.5336946   607864 
 7908000    1.4152039    -3.562467   -2.0291977   0.16415709    -3.562467    1.5332693   607877 
 7909000    1.4167299    -3.564373   -2.0294681   0.15991125    -3.564373     1.534905   607884 
 7910000    1.4158223   -3.5627787   -2.0288621   0.16163732   -3.5627787    1.5339166   607886 
 7911000    1.4162706   -3.5633306   -2.0289637   0.16280548   -3.5633306    1.5343669   607900 
 7912000    1.4173705   -3.5651925   -2.0296794   0.15781114   -3.5651925    1.5355131   607918 
 7913000    1.4155302   -3.5626671   -2.0291982     0.165996   -3.5626671    1.5334689   607938 
 7914000    1.4160606   -3.5635249   -2.0295016   0.16624376   -3.5635249    1.5340234   607946 
 7915000    1.4153262   -3.5624798   -2.0292874   0.16460188   -3.5624798    1.5331924   607960 
 7916000    1.4146915   -3.5624135   -2.0299363   0.15735415   -3.5624135    1.5324772   607971 
 7917000    1.4138918    -3.562401   -2.0308179   0.16156034    -3.562401    1.5315832   607982 
 7918000    1.4154242   -3.5631293   -2.0299114   0.16226336   -3.5631293    1.5332179   607992 
 7919000    1.4154409   -3.5630717   -2.0298711   0.16222473   -3.5630717    1.5332007   608006 
 7920000    1.4163221   -3.5636645   -2.0295674   0.15902452   -3.5636645    1.5340972   608029 
 7921000    1.4160576   -3.5632121    -2.029419   0.16354389   -3.5632121    1.5337931   608036 
 7922000    1.4154626   -3.5640705   -2.0309219   0.16421697   -3.5640705    1.5331486   608036 
 7923000    1.4151699   -3.5637993   -2.0309955    0.1615436   -3.5637993    1.5328038   608047 
 7924000    1.4148175   -3.5635372   -2.0311328   0.15882588   -3.5635372    1.5324044   608054 
 7925000    1.4141204    -3.564271   -2.0326568   0.16155704    -3.564271    1.5316142   608068 
 7926000    1.4151411   -3.5659495   -2.0332424   0.15693087   -3.5659495     1.532707   608073 
 7927000    1.4158472    -3.565786   -2.0323571   0.15517653    -3.565786    1.5334289   608090 
 7928000    1.4144882   -3.5644422   -2.0325154   0.16523725   -3.5644422    1.5319269   608102 
 7929000    1.4149895   -3.5653509   -2.0329164   0.16323451   -3.5653509    1.5324345   608116 
 7930000    1.4154228   -3.5663842   -2.0335156   0.15329386   -3.5663842    1.5328685   608130 
 7931000    1.4133779   -3.5646871    -2.034056    0.1609775   -3.5646871    1.5306312   608139 
 7932000    1.4150735   -3.5660114   -2.0335691   0.15826179   -3.5660114    1.5324423   608149 
 7933000    1.4142864   -3.5656913   -2.0341366   0.16194095   -3.5656913    1.5315546   608163 
 7934000    1.4150685   -3.5663357   -2.0339618   0.15864664   -3.5663357    1.5323739   608174 
 7935000    1.4142076   -3.5655471   -2.0341533   0.16288221   -3.5655471    1.5313938   608193 
 7936000    1.4158875   -3.5679515   -2.0347588   0.15357497   -3.5679515    1.5331927   608201 
 7937000    1.4145708   -3.5669919   -2.0352426   0.15126961   -3.5669919    1.5317493   608208 
 7938000    1.4146032   -3.5666533   -2.0349067    0.1598568   -3.5666533    1.5317466   608223 
 7939000     1.415085   -3.5667811    -2.034538   0.15895896   -3.5667811    1.5322431   608233 
 7940000    1.4153672   -3.5665221   -2.0340012   0.15710636   -3.5665221    1.5325209   608244 
 7941000    1.4149837   -3.5673107   -2.0352276   0.15225359   -3.5673107     1.532083   608253 
 7942000    1.4137513   -3.5659013   -2.0351929   0.15999309   -3.5659013    1.5307084   608269 
 7943000    1.4138523   -3.5661988   -2.0353962    0.1562738   -3.5661988    1.5308026   608275 
 7944000    1.4147386   -3.5665977   -2.0348707    0.1551807   -3.5665977    1.5317271   608289 
 7945000    1.4147226   -3.5666868   -2.0350325   0.16117847   -3.5666868    1.5316543   608311 
 7946000    1.4162281   -3.5676204   -2.0343563    0.1627209   -3.5676204     1.533264   608319 
 7947000    1.4149171    -3.566478   -2.0346483   0.16113804    -3.566478    1.5318296   608325 
 7948000    1.4144938   -3.5660872    -2.034751   0.15879533   -3.5660872    1.5313361   608339 
 7949000    1.4158489   -3.5675633   -2.0348056   0.15426228   -3.5675633    1.5327578   608357 
 7950000     1.414786   -3.5661118   -2.0345449   0.16440219   -3.5661118    1.5315669   608373 
 7951000    1.4150585   -3.5671154   -2.0352838   0.16033814   -3.5671154    1.5318316   608385 
 7952000    1.4171186   -3.5698921   -2.0358934   0.16196253   -3.5698921    1.5339987   608410 
 7953000    1.4147309   -3.5674785   -2.0361224   0.16030776   -3.5674785    1.5313562   608433 
 7954000    1.4142914   -3.5663648   -2.0355296   0.16519566   -3.5663648    1.5308351   608451 
 7955000    1.4137515   -3.5670225   -2.0368321   0.15766403   -3.5670225    1.5301904   608475 
 7956000    1.4158031   -3.5682063   -2.0358306   0.15326016   -3.5682063    1.5323757   608489 
 7957000    1.4132892   -3.5661285   -2.0364812    0.1611278   -3.5661285    1.5296473   608492 
 7958000    1.4164523   -3.5695207   -2.0364852   0.15528508   -3.5695207    1.5330355   608506 
 7959000    1.4139658   -3.5676933   -2.0373968   0.15257061   -3.5676933    1.5302966   608525 
 7960000    1.4126628   -3.5670146   -2.0381433   0.15792717   -3.5670146    1.5288713   608531 
 7961000    1.4139872   -3.5679913   -2.0377269   0.16328239   -3.5679913    1.5302644   608547 
 7962000    1.4151411   -3.5682372   -2.0367416   0.16300731   -3.5682372    1.5314956   608554 
 7963000    1.4151197   -3.5688086   -2.0373563   0.15674298   -3.5688086    1.5314523   608562 
 7964000    1.4160005    -3.568765   -2.0364124   0.16069603    -3.568765    1.5323526   608583 
 7965000     1.415595   -3.5685609   -2.0366748   0.16075415   -3.5685609    1.5318862   608594 
 7966000    1.4145295   -3.5675202   -2.0368047   0.15487657   -3.5675202    1.5307155   608601 
 7967000     1.416251   -3.5694026   -2.0368443   0.15832142   -3.5694026    1.5325583   608609 
 7968000    1.4163923   -3.5696218   -2.0369636   0.16049902   -3.5696218    1.5326582   608630 
 7969000     1.415079   -3.5689438   -2.0377393   0.15683305   -3.5689438    1.5312045   608643 
 7970000    1.4142247   -3.5685415   -2.0382891   0.16382972   -3.5685415    1.5302524   608654 
 7971000    1.4135667   -3.5677399    -2.038187   0.16583974   -3.5677399     1.529553   608649 
 7972000    1.4152771   -3.5692968   -2.0379158   0.15873365   -3.5692968     1.531381   608658 
 7973000    1.4148699   -3.5692177   -2.0383124   0.16227166   -3.5692177    1.5309053   608672 
 7974000    1.4152245   -3.5682958   -2.0370296   0.15811759   -3.5682958    1.5312663   608681 
 7975000    1.4157813   -3.5699526   -2.0381241   0.15939914   -3.5699526    1.5318284   608697 
 7976000    1.4146251   -3.5677075     -2.03714    0.1677345   -3.5677075    1.5305675   608701 
 7977000    1.4152957   -3.5685188   -2.0372308   0.16617223   -3.5685188     1.531288   608703 
 7978000    1.4167779   -3.5702331   -2.0373817   0.15356087   -3.5702331    1.5328514   608719 
 7979000    1.4163852   -3.5689429   -2.0365492   0.16290796   -3.5689429    1.5323937   608732 
 7980000    1.4146799   -3.5670295   -2.0365058    0.1679606   -3.5670295    1.5305236   608742 
 7981000    1.4183897   -3.5702195   -2.0357075   0.15815777   -3.5702195     1.534512   608752 
 7982000    1.4163008   -3.5681335   -2.0359014   0.16589519   -3.5681335     1.532232   608760 
 7983000     1.416855   -3.5682861   -2.0355049   0.16541149   -3.5682861    1.5327811   608780 
 7984000    1.4182081   -3.5688185   -2.0346087   0.15791899   -3.5688185    1.5342097   608794 
 7985000    1.4165626   -3.5684981   -2.0360961   0.16094986   -3.5684981     1.532402   608805 
 7986000    1.4153648    -3.567477   -2.0363808   0.15873963    -3.567477    1.5310961   608809 
 7987000    1.4177576   -3.5710733   -2.0374391   0.15740484   -3.5710733    1.5336342   608829 
 7988000    1.4162971   -3.5696856   -2.0376563   0.16102412   -3.5696856    1.5320292   608839 
 7989000    1.4161613   -3.5705716   -2.0387019    0.1607698   -3.5705716    1.5318697   608844 
 7990000    1.4146063   -3.5682888   -2.0380912   0.15966846   -3.5682888    1.5301977   608840 
 7991000    1.4156234   -3.5696719   -2.0384142   0.16135159   -3.5696719    1.5312577   608856 
 7992000    1.4147342    -3.568505   -2.0382243   0.16165852    -3.568505    1.5302807   608862 
 7993000    1.4170989   -3.5707892   -2.0379884   0.15642353   -3.5707892    1.5328008   608877 
 7994000    1.4147418   -3.5687506   -2.0385194   0.16426355   -3.5687506    1.5302311   608885 
 7995000    1.4162223   -3.5700127   -2.0381902   0.16417801   -3.5700127    1.5318225   608889 
 7996000     1.415685   -3.5699376   -2.0387214   0.15679008   -3.5699376    1.5312162   608899 
 7997000    1.4155516   -3.5690488   -2.0379996   0.16019343   -3.5690488    1.5310492   608908 
 7998000    1.4148853   -3.5686078   -2.0383169   0.16313293   -3.5686078    1.5302909   608923 
 7999000    1.4154247   -3.5681108   -2.0372441   0.16673049   -3.5681108    1.5308667   608926 
 8000000    1.4142924   -3.5671269   -2.0375025   0.16443732   -3.5671269    1.5296245   608933 
Loop time of 10207.7 on 192 procs for 5000000 steps with 608933 atoms

Performance: 211604.041 tau/day, 489.824 timesteps/s
99.2% CPU use with 192 MPI tasks x 1 OpenMP threads

MPI task timing breakdown:
Section |  min time  |  avg time  |  max time  |%varavg|  %CPU | %total
-----------------------------------------------------------------------
Pair    | 3512.7     | 4250.6     | 4664.3     | 490.8 |  99.1 | 41.64
Bond    | 3.3254     | 3.4827     | 3.7504     |   3.6 | 100.0 |  0.03
Neigh   | 1808.6     | 2053.2     | 2170.7     | 202.9 |  99.5 | 20.11
Comm    | 1251.6     | 2192.3     | 3092.2     | 941.2 |  99.0 | 21.48
Output  | 282.56     | 283.77     | 283.79     |   0.5 |  98.3 |  2.78
Modify  | 1125.8     | 1221.4     | 1761       | 568.6 |  99.1 | 11.97
Other   |            | 203        |            |       |       |  1.99

Nlocal:        3171.53 ave        3265 max        3090 min
Histogram: 7 17 17 27 45 28 19 19 8 5
Nghost:        4223.54 ave        4586 max        3452 min
Histogram: 18 30 0 0 0 0 0 3 102 39
Neighs:        95535.8 ave      103701 max       84208 min
Histogram: 6 9 4 9 14 43 54 40 9 4

Total # of neighbors = 18342873
Ave neighs/atom = 30.122974
Ave special neighs/atom = 0.0000000
Neighbor list builds = 505000
Dangerous builds = 450000

write_restart   restart_write.dat
System init for write_restart ...
write_data	data.write
System init for write_data ...
WARNING: Not all mixed pair coeffs generated from mixing. Use write_data with 'pair ij' option to store all pair coeffs. (src/write_data.cpp:312)

Total wall time: 2:50:11
