LAMMPS (3 Mar 2020)
  using 1 OpenMP thread(s) per MPI task
# Simple rigid body system


units		lj
atom_style	full
dimension 	3
boundary	p p f
pair_style	lj/cut 4.4

variable 	sigma		equal 1.0
variable 	epsilon 	equal 1.0


region		box block 0 40 0 40 0 40
create_box 	1 box
Created orthogonal box = (0 0 0) to (40 40 40)
  2 by 2 by 4 MPI processor grid
lattice 	sc 1.0
Lattice spacing in x,y,z = 1 1 1

create_atoms 	1 region box
Created 64000 atoms
  create_atoms CPU = 0.0219435 secs

mass		1 1.0
group		solvent type 1
64000 atoms in group solvent
velocity 	solvent create 1.0 563435 loop geom

replicate 	2 2 2
Replicating atoms ...
WARNING: Replicating in a non-periodic dimension (src/replicate.cpp:72)
  orthogonal box = (0 0 0) to (80 80 80)
  2 by 2 by 4 MPI processor grid
  512000 atoms
Finding 1-2 1-3 1-4 neighbors ...
  special bond factors lj:   0          0          0         
  special bond factors coul: 0          0          0         
  0 = max # of 1-2 neighbors
  0 = max # of 1-3 neighbors
  0 = max # of 1-4 neighbors
  1 = max # of special neighbors
  special bonds CPU = 0.0383823 secs
  replicate CPU = 0.25345 secs
read_data	data.vac add append
Reading data file ...
  orthogonal box = (0 0 0) to (80 80 160)
  2 by 2 by 4 MPI processor grid
Finding 1-2 1-3 1-4 neighbors ...
  special bond factors lj:   0          0          0         
  special bond factors coul: 0          0          0         
  0 = max # of 1-2 neighbors
  0 = max # of 1-3 neighbors
  0 = max # of 1-4 neighbors
  1 = max # of special neighbors
  special bonds CPU = 0.0446222 secs
  read_data CPU = 0.0856312 secs

neighbor 	0.4 bin
pair_coeff	1 1 1.0 1.0
pair_modify 	shift yes

balance 	1.05 shift z 10 1.05
Balancing ...
Neighbor list info ...
  update every 1 steps, delay 10 steps, check yes
  max neighbors/atom: 2000, page size: 100000
  master list distance cutoff = 4.8
  ghost atom cutoff = 4.8
  binsize = 2.4, bins = 34 34 67
  1 neighbor lists, perpetual/occasional/extra = 1 0 0
  (1) pair lj/cut, perpetual
      attributes: half, newton on
      pair build: half/bin/newton
      stencil: half/bin/3d/newton
      bin: standard
  rebalancing time: 0.0571902 seconds
  iteration count = 5
  initial/final max load/proc = 64000 35200
  initial/final imbalance factor = 2 1.1
  x cuts: 0 0.5 1
  y cuts: 0 0.5 1
  z cuts: 0 0.125 0.257812 0.375 1

####################### WALLS ###########################

region	       low block  EDGE EDGE EDGE EDGE 0 1

region 	       top block  EDGE EDGE EDGE EDGE 159 160

delete_atoms   region low
WARNING: Ignoring 'compress yes' for molecular system (src/delete_atoms.cpp:125)
Deleted 12800 atoms, new total = 499200

variable       epsilonWall equal 2*${epsilon}
variable       epsilonWall equal 2*1

variable       cutoffTop   equal   0.7147*${sigma}
variable       cutoffTop   equal   0.7147*1

variable       cutoffLow   equal   3*${sigma}
variable       cutoffLow   equal   3*1

fix            topWall all wall/lj93 zhi EDGE                ${epsilonWall} ${sigma} ${cutoffTop} units box
fix            topWall all wall/lj93 zhi EDGE                2 ${sigma} ${cutoffTop} units box
fix            topWall all wall/lj93 zhi EDGE                2 1 ${cutoffTop} units box
fix            topWall all wall/lj93 zhi EDGE                2 1 0.7147 units box

fix            lowWall all wall/lj93 zlo EDGE                ${epsilonWall} ${sigma} ${cutoffLow} units box
fix            lowWall all wall/lj93 zlo EDGE                2 ${sigma} ${cutoffLow} units box
fix            lowWall all wall/lj93 zlo EDGE                2 1 ${cutoffLow} units box
fix            lowWall all wall/lj93 zlo EDGE                2 1 3 units box



######################	FIXES ############################

#fix		1 cube rigid/nvt/small molecule temp 1.0 1.0 0.25

fix 		2 solvent nvt temp 1.0 0.87 0.25# iso 0 0.0 2.5

fix 		bal all balance 1000 1.05 shift z 10 1.05



#compute 	com cube	  rigid/local	1 mol x y z
#compute 	quat cube	  rigid/local	1 mol quatw quati quatj quatk

thermo 		1000
thermo_style 	custom step temp epair evdwl etotal press pe ke vol

dump		1 all custom 100000 dump.lammpstrj id mol type x y z
dump 		2 all image 10000 image.*.png type type
#dump 		3 all movie 100 movie.avi type type
#dump 		com cube local 1000 dump.*.xyz c_com[*]
#dump		quat cube      local 1000 dump.*.quat c_quat[*]


restart 	100000 restart.dat
timestep 	0.0025
timer 		full
New timer settings: style=full  mode=nosync  timeout=off


run		1000000
Setting up Verlet run ...
  Unit style    : lj
  Current step  : 0
  Time step     : 0.0025
Per MPI rank memory allocation (min/avg/max) = 53.99 | 63.14 | 70.79 Mbytes
Step Temp E_pair E_vdwl TotEng Press PotEng KinEng Volume 
       0    0.9999782   -4.1582862   -4.1582862   -2.6583219    8.3781089   -4.1582862    1.4999643      1024000 
    1000    1.0601717   -5.9469035   -5.9469035   -4.3566492    2.7906677   -5.9469035    1.5902543      1024000 
    2000   0.99345606   -6.0299464   -6.0299464   -4.5397653    1.8276855   -6.0299464    1.4901811      1024000 
    3000   0.99619508   -5.9811753   -5.9811753   -4.4868856    1.2070537   -5.9811753    1.4942896      1024000 
    4000   0.99945115   -5.9528655   -5.9528655   -4.4536918   0.51256969   -5.9528655    1.4991737      1024000 
    5000    0.9992822   -5.8696338   -5.8696338   -4.3707135   0.15831651   -5.8696338    1.4989203      1024000 
    6000   0.99943881   -5.7615164   -5.7615164   -4.2623612  0.056367522   -5.7615164    1.4991552      1024000 
    7000    1.0000452   -5.6460221   -5.6460221   -4.1459574 -0.037472269   -5.6460221    1.5000648      1024000 
    8000    1.0007079   -5.5719817   -5.5719817    -4.070923  -0.17707211   -5.5719817    1.5010588      1024000 
    9000   0.99940583   -5.5127958   -5.5127958     -4.01369  -0.28405195   -5.5127958    1.4991057      1024000 
   10000   0.99989825   -5.4689747   -5.4689747   -3.9691303  -0.32353283   -5.4689747    1.4998444      1024000 
   11000   0.99930641   -5.4532468   -5.4532468   -3.9542902  -0.28885976   -5.4532468    1.4989566      1024000 
   12000   0.99858045   -5.4720397   -5.4720397   -3.9741721  -0.24554662   -5.4720397    1.4978677      1024000 
   13000   0.99872085   -5.5185716   -5.5185716   -4.0204933  -0.20852025   -5.5185716    1.4980783      1024000 
   14000   0.99806742   -5.5789355   -5.5789355   -4.0818374  -0.13095131   -5.5789355    1.4970981      1024000 
   15000   0.99738549   -5.6463488   -5.6463488   -4.1502736 -0.026726393   -5.6463488    1.4960752      1024000 
   16000   0.99739549   -5.7136021   -5.7136021   -4.2175118  0.082562291   -5.7136021    1.4960902      1024000 
   17000   0.99899362   -5.7686877   -5.7686877   -4.2702002   0.18321768   -5.7686877    1.4984874      1024000 
   18000   0.99930209   -5.8178368   -5.8178368   -4.3188867   0.31574976   -5.8178368    1.4989501      1024000 
   19000   0.99878368   -5.8630491   -5.8630491   -4.3648766   0.45695541   -5.8630491    1.4981725      1024000 
   20000   0.99754156   -5.8970348   -5.8970348   -4.4007255   0.55786684   -5.8970348    1.4963093      1024000 
   21000   0.99831523   -5.9008512   -5.9008512   -4.4033814   0.55489118   -5.9008512    1.4974698      1024000 
   22000    0.9963644   -5.8694158   -5.8694158   -4.3748722    0.4485126   -5.8694158    1.4945436      1024000 
   23000   0.99670571   -5.8188283   -5.8188283   -4.3237727   0.30275491   -5.8188283    1.4950556      1024000 
   24000   0.99677715   -5.7629095   -5.7629095   -4.2677468    0.1566753   -5.7629095    1.4951627      1024000 
   25000   0.99654513     -5.69767     -5.69767   -4.2028553  0.031925291     -5.69767    1.4948147      1024000 
   26000   0.99773246   -5.6341946   -5.6341946   -4.1375989 -0.075211759   -5.6341946    1.4965957      1024000 
   27000   0.99617954   -5.5799925   -5.5799925   -4.0857261  -0.14275993   -5.5799925    1.4942663      1024000 
   28000   0.99727568   -5.5484042   -5.5484042   -4.0524937  -0.18216668   -5.5484042    1.4959105      1024000 
   29000   0.99610604   -5.5410749   -5.5410749   -4.0469189  -0.18953066   -5.5410749    1.4941561      1024000 
   30000   0.99573252   -5.5551515   -5.5551515   -4.0615557  -0.16229925   -5.5551515    1.4935958      1024000 
   31000     0.995739   -5.5865553   -5.5865553   -4.0929498  -0.11727418   -5.5865553    1.4936055      1024000 
   32000   0.99695386   -5.6351738   -5.6351738    -4.139746 -0.046108805   -5.6351738    1.4954278      1024000 
   33000   0.99613319   -5.7052562   -5.7052562   -4.2110594    0.1571443   -5.7052562    1.4941968      1024000 
   34000   0.99559839   -5.8071259   -5.8071259   -4.3137313   0.54534717   -5.8071259    1.4933946      1024000 
   35000   0.99824838   -5.8881277   -5.8881277   -4.3907581    1.0215878   -5.8881277    1.4973696      1024000 
   36000   0.99338949   -5.9270583   -5.9270583   -4.4369771     1.586966   -5.9270583    1.4900813      1024000 
   37000   0.99510892   -5.9520178   -5.9520178   -4.4593574    2.1591963   -5.9520178    1.4926604      1024000 
   38000   0.99543207   -5.9640449   -5.9640449   -4.4708998    2.5485627   -5.9640449    1.4931451      1024000 
   39000   0.99361375   -5.9189663   -5.9189663   -4.4285487    2.4064931   -5.9189663    1.4904176      1024000 
   40000   0.99541847   -5.9116263   -5.9116263   -4.4185016    2.0025812   -5.9116263    1.4931247      1024000 
   41000   0.99572576   -5.9120474   -5.9120474   -4.4184618    1.4770772   -5.9120474    1.4935856      1024000 
   42000   0.99444676   -5.8924662   -5.8924662    -4.400799   0.94775688   -5.8924662    1.4916672      1024000 
   43000   0.99241293   -5.8244512   -5.8244512   -4.3358348   0.53916081   -5.8244512    1.4886164      1024000 
   44000   0.99411139    -5.719221    -5.719221   -4.2280569   0.24920197    -5.719221    1.4911641      1024000 
   45000   0.99446461   -5.6113086   -5.6113086   -4.1196146  0.046722377   -5.6113086    1.4916939      1024000 
   46000   0.99394508   -5.5106274   -5.5106274   -4.0197127  -0.10345332   -5.5106274    1.4909146      1024000 
   47000   0.99494802   -5.4183557   -5.4183557   -3.9259366  -0.20653804   -5.4183557     1.492419      1024000 
   48000   0.99378299   -5.3432247   -5.3432247   -3.8525532  -0.26505854   -5.3432247    1.4906715      1024000 
   49000   0.99528602   -5.2927438   -5.2927438   -3.7998178  -0.29674599   -5.2927438     1.492926      1024000 
   50000   0.99449023   -5.2685873   -5.2685873   -3.7768549  -0.30710509   -5.2685873    1.4917324      1024000 
   51000   0.99405533   -5.2734976   -5.2734976   -3.7824176  -0.29798957   -5.2734976      1.49108      1024000 
   52000   0.99432942   -5.3080674   -5.3080674   -3.8165763  -0.26921848   -5.3080674    1.4914911      1024000 
   53000   0.99321261   -5.3663505   -5.3663505   -3.8765345  -0.21130287   -5.3663505    1.4898159      1024000 
   54000   0.99418748    -5.443972    -5.443972   -3.9526937  -0.13293211    -5.443972    1.4912782      1024000 
   55000    0.9935084   -5.5279658   -5.5279658   -4.0377062 -0.015906574   -5.5279658    1.4902596      1024000 
   56000   0.99317851   -5.6126394   -5.6126394   -4.1228746   0.11606812   -5.6126394    1.4897648      1024000 
   57000   0.99233679   -5.6923061   -5.6923061   -4.2038039   0.27801504   -5.6923061    1.4885022      1024000 
   58000    0.9934202   -5.7550427   -5.7550427   -4.2649153   0.45186074   -5.7550427    1.4901273      1024000 
   59000   0.99277215   -5.7960717   -5.7960717   -4.3069165   0.58350401   -5.7960717    1.4891552      1024000 
   60000   0.99197739    -5.806585    -5.806585   -4.3186219   0.61778598    -5.806585    1.4879631      1024000 
   61000   0.99175636   -5.7899598   -5.7899598   -4.3023282   0.54012588   -5.7899598    1.4876316      1024000 
   62000   0.99212216   -5.7440217   -5.7440217   -4.2558415   0.39626564   -5.7440217    1.4881803      1024000 
   63000   0.99127379   -5.6774842   -5.6774842   -4.1905765   0.22518543   -5.6774842    1.4869077      1024000 
   64000   0.99173254   -5.6000362   -5.6000362   -4.1124404  0.062892154   -5.6000362    1.4875958      1024000 
   65000    0.9904369   -5.5167211   -5.5167211   -4.0310687 -0.057273981   -5.5167211    1.4856524      1024000 
   66000   0.99030542   -5.4427104   -5.4427104   -3.9572553  -0.14153656   -5.4427104    1.4854551      1024000 
   67000   0.98945536   -5.3850832   -5.3850832   -3.9009032  -0.19148553   -5.3850832    1.4841801      1024000 
   68000   0.99088336   -5.3521408   -5.3521408   -3.8658187   -0.2218551   -5.3521408    1.4863221      1024000 
   69000   0.99053131    -5.340484    -5.340484     -3.85469  -0.22095206    -5.340484     1.485794      1024000 
   70000   0.99416201   -5.3499613   -5.3499613   -3.8587213  -0.20509852   -5.3499613      1.49124      1024000 
   71000   0.99275631    -5.383282    -5.383282   -3.8941505  -0.17565169    -5.383282    1.4891315      1024000 
   72000   0.99319941   -5.4314326   -5.4314326   -3.9416365  -0.11415265   -5.4314326    1.4897961      1024000 
   73000   0.99597338    -5.515746    -5.515746   -4.0217889  0.037658709    -5.515746    1.4939571      1024000 
   74000   0.99650105   -5.6287378   -5.6287378   -4.1339892   0.29896628   -5.6287378    1.4947486      1024000 
   75000   0.99378336   -5.7350503   -5.7350503   -4.2443782   0.63969759   -5.7350503     1.490672      1024000 
   76000   0.99146882   -5.8225761   -5.8225761   -4.3353758    1.0425978   -5.8225761    1.4872003      1024000 
   77000   0.99028444   -5.8775238   -5.8775238   -4.3921001    1.5099739   -5.8775238    1.4854237      1024000 
   78000    0.9906643   -5.9128041   -5.9128041   -4.4268107    1.9718979   -5.9128041    1.4859935      1024000 
   79000   0.98696278   -5.8936462   -5.8936462    -4.413205     2.091839   -5.8936462    1.4804412      1024000 
   80000    0.9901642   -5.8555695   -5.8555695   -4.3703262    1.9923681   -5.8555695    1.4852433      1024000 
   81000   0.98967215   -5.8399086   -5.8399086   -4.3554034    1.7378541   -5.8399086    1.4845053      1024000 
   82000   0.98977445   -5.8426153   -5.8426153   -4.3579566    1.3383816   -5.8426153    1.4846587      1024000 
   83000   0.98792616   -5.8228995   -5.8228995   -4.3410132   0.93589449   -5.8228995    1.4818863      1024000 
   84000   0.98471842   -5.7557453   -5.7557453   -4.2786706   0.60888962   -5.7557453    1.4770747      1024000 
   85000   0.98367096   -5.6544012   -5.6544012   -4.1788977   0.32786094   -5.6544012    1.4755035      1024000 
   86000   0.98247332   -5.5250524   -5.5250524   -4.0513453  0.093450499   -5.5250524     1.473707      1024000 
   87000   0.98208206   -5.3793997   -5.3793997   -3.9062796 -0.097291191   -5.3793997    1.4731201      1024000 
   88000   0.98259713   -5.2279825   -5.2279825   -3.7540898  -0.23550946   -5.2279825    1.4738927      1024000 
   89000   0.98413202   -5.0859538   -5.0859538   -3.6097587  -0.32173119   -5.0859538    1.4761951      1024000 
   90000    0.9862744   -4.9629125   -4.9629125   -3.4835039  -0.36393088   -4.9629125    1.4794086      1024000 
   91000   0.98683029   -4.8708598   -4.8708598   -3.3906173  -0.37494842   -4.8708598    1.4802425      1024000 
   92000   0.98799224   -4.8242144   -4.8242144    -3.342229  -0.35346403   -4.8242144    1.4819854      1024000 
   93000   0.98806397   -4.8307423   -4.8307423   -3.3486493  -0.30772343   -4.8307423     1.482093      1024000 
   94000   0.99142521   -4.8883586   -4.8883586   -3.4012238  -0.23270424   -4.8883586    1.4871348      1024000 
   95000   0.99098433   -4.9758942   -4.9758942   -3.4894207  -0.14532657   -4.9758942    1.4864735      1024000 
   96000   0.99006707   -5.0638555   -5.0638555   -3.5787578 -0.046907439   -5.0638555    1.4850976      1024000 
   97000   0.98800657   -5.1304826   -5.1304826   -3.6484757  0.031446267   -5.1304826    1.4820069      1024000 
   98000   0.98666024   -5.1605651   -5.1605651   -3.6805777  0.067646399   -5.1605651    1.4799874      1024000 
   99000   0.98787987   -5.1651831   -5.1651831   -3.6833663  0.055384905   -5.1651831    1.4818168      1024000 
  100000   0.98881203   -5.1525385   -5.1525385   -3.6693234  0.034841056   -5.1525385    1.4832151      1024000 
  101000    0.9872705   -5.1409697   -5.1409697   -3.6600669  0.010668427   -5.1409697    1.4809028      1024000 
  102000   0.98731373   -5.1385826   -5.1385826    -3.657615 0.00096359256   -5.1385826    1.4809676      1024000 
  103000   0.98561382    -5.139053    -5.139053   -3.6606352 0.0081327424    -5.139053    1.4784178      1024000 
  104000   0.98621071    -5.152543    -5.152543   -3.6732299  0.022144962    -5.152543    1.4793131      1024000 
  105000   0.98620717   -5.1728497   -5.1728497   -3.6935419  0.041440516   -5.1728497    1.4793078      1024000 
  106000   0.98693721   -5.1893062   -5.1893062   -3.7089033  0.059160574   -5.1893062    1.4804028      1024000 
  107000   0.98454627   -5.1994002   -5.1994002   -3.7225837  0.059392793   -5.1994002    1.4768164      1024000 
  108000   0.98505753   -5.2030042   -5.2030042   -3.7254208  0.060888064   -5.2030042    1.4775833      1024000 
  109000   0.98306674   -5.2026931   -5.2026931   -3.7280959  0.050897991   -5.2026931    1.4745972      1024000 
  110000   0.98514415   -5.2011433   -5.2011433     -3.72343   0.05641119   -5.2011433    1.4777133      1024000 
  111000   0.98475603   -5.2030349   -5.2030349   -3.7259038  0.052228463   -5.2030349    1.4771311      1024000 
  112000   0.98535509   -5.2061534   -5.2061534   -3.7281237  0.056725137   -5.2061534    1.4780297      1024000 
  113000   0.98554433   -5.2150328   -5.2150328   -3.7367193    0.0481002   -5.2150328    1.4783135      1024000 
  114000   0.98478911   -5.2161933   -5.2161933   -3.7390126  0.057679467   -5.2161933    1.4771807      1024000 
  115000   0.98363087   -5.2199315   -5.2199315   -3.7444881  0.058778028   -5.2199315    1.4754433      1024000 
  116000   0.98589013   -5.2287269   -5.2287269   -3.7498947  0.078668686   -5.2287269    1.4788322      1024000 
  117000   0.98721248   -5.2565244   -5.2565244   -3.7757087   0.14611609   -5.2565244    1.4808158      1024000 
  118000   0.98698049   -5.3019658   -5.3019658   -3.8214981   0.27860402   -5.3019658    1.4804678      1024000 
  119000   0.98706422   -5.3598007   -5.3598007   -3.8792074   0.46722514   -5.3598007    1.4805934      1024000 
  120000   0.98537942   -5.4196732   -5.4196732    -3.941607   0.60345043   -5.4196732    1.4780662      1024000 
  121000   0.98486514     -5.45772     -5.45772   -3.9804252   0.64923155     -5.45772    1.4772947      1024000 
  122000   0.98392667   -5.4710115   -5.4710115   -3.9951245   0.64030444   -5.4710115     1.475887      1024000 
  123000   0.98423954   -5.4843186   -5.4843186   -4.0079622   0.65684915   -5.4843186    1.4763564      1024000 
  124000   0.98459626   -5.5056941   -5.5056941   -4.0288027   0.81692739   -5.5056941    1.4768914      1024000 
  125000   0.98482549   -5.5299714   -5.5299714   -4.0527361    1.0283602   -5.5299714    1.4772353      1024000 
  126000   0.98259401   -5.5536864   -5.5536864   -4.0797983    1.0379498   -5.5536864    1.4738881      1024000 
  127000   0.98129859   -5.5153612   -5.5153612   -4.0434162   0.90629064   -5.5153612    1.4719449      1024000 
  128000   0.98287896   -5.4508723   -5.4508723   -3.9765569   0.81120137   -5.4508723    1.4743155      1024000 
  129000   0.98104111   -5.3837292   -5.3837292   -3.9121705   0.78476293   -5.3837292    1.4715587      1024000 
  130000   0.98260065   -5.3432991   -5.3432991   -3.8694011   0.68139359   -5.3432991     1.473898      1024000 
  131000   0.98156607   -5.3185606   -5.3185606   -3.8462144   0.51719414   -5.3185606    1.4723462      1024000 
  132000   0.98330281   -5.2957792   -5.2957792   -3.8208279   0.38900088   -5.2957792    1.4749513      1024000 
  133000   0.98158672   -5.2681006   -5.2681006   -3.7957235   0.32534597   -5.2681006    1.4723771      1024000 
  134000   0.98156701   -5.2395163   -5.2395163   -3.7671687   0.28061699   -5.2395163    1.4723476      1024000 
  135000   0.97928258   -5.1818356   -5.1818356   -3.7129147    0.1999146   -5.1818356    1.4689209      1024000 
  136000    0.9804718   -5.1171888   -5.1171888    -3.646484   0.10762428   -5.1171888    1.4707048      1024000 
  137000    0.9810519   -5.0576704   -5.0576704   -3.5860955  0.046509621   -5.0576704    1.4715749      1024000 
  138000   0.97941311   -4.9994875   -4.9994875   -3.5303708  0.021120795   -4.9994875    1.4691167      1024000 
  139000   0.97963266   -4.9485307   -4.9485307   -3.4790846 -0.0062232472   -4.9485307     1.469446      1024000 
  140000   0.98042433    -4.899479    -4.899479   -3.4288454 -0.049929866    -4.899479    1.4706335      1024000 
  141000   0.97882759   -4.8446553   -4.8446553   -3.3764169 -0.091478442   -4.8446553    1.4682384      1024000 
  142000   0.97995547    -4.795922    -4.795922   -3.3259917  -0.12499078    -4.795922    1.4699303      1024000 
  143000    0.9806387   -4.7596079   -4.7596079   -3.2886528  -0.14677012   -4.7596079    1.4709551      1024000 
  144000    0.9829618   -4.7350963   -4.7350963   -3.2606566   -0.1457504   -4.7350963    1.4744397      1024000 
  145000   0.98017524   -4.7266008   -4.7266008   -3.2563409  -0.15214262   -4.7266008    1.4702599      1024000 
  146000   0.98015226   -4.7254623   -4.7254623   -3.2552368  -0.14537525   -4.7254623    1.4702254      1024000 
  147000   0.98164335   -4.7357853   -4.7357853   -3.2633232  -0.13041019   -4.7357853    1.4724621      1024000 
  148000   0.98185374   -4.7579063   -4.7579063   -3.2851286  -0.11604585   -4.7579063    1.4727777      1024000 
  149000   0.98145736   -4.7872332   -4.7872332   -3.3150502  -0.09997268   -4.7872332    1.4721831      1024000 
  150000   0.98240914    -4.829537    -4.829537   -3.3559262 -0.070936695    -4.829537    1.4736108      1024000 
  151000   0.98225975   -4.8776393   -4.8776393   -3.4042526 -0.031174954   -4.8776393    1.4733867      1024000 
  152000   0.98043023   -4.9262283   -4.9262283   -3.4555859 0.0078441575   -4.9262283    1.4706424      1024000 
  153000    0.9816421   -4.9806595   -4.9806595   -3.5081993  0.047007017   -4.9806595    1.4724602      1024000 
  154000   0.98160161   -5.0310378   -5.0310378   -3.5586384  0.092330653   -5.0310378    1.4723995      1024000 
  155000   0.97939644   -5.0700678   -5.0700678   -3.6009761   0.14227238   -5.0700678    1.4690917      1024000 
  156000   0.98084296   -5.0943218   -5.0943218   -3.6230603   0.15081339   -5.0943218    1.4712615      1024000 
  157000   0.98120639   -5.1006976   -5.1006976    -3.628891   0.15270118   -5.1006976    1.4718066      1024000 
  158000   0.97857976   -5.0942435   -5.0942435   -3.6263768   0.14757759   -5.0942435    1.4678667      1024000 
  159000   0.98037281   -5.0840154   -5.0840154   -3.6134592   0.14705572   -5.0840154    1.4705563      1024000 
  160000   0.98124687   -5.0791645   -5.0791645   -3.6072971   0.13426581   -5.0791645    1.4718674      1024000 
  161000   0.97908261   -5.0756511   -5.0756511   -3.6070301   0.13149358   -5.0756511     1.468621      1024000 
  162000   0.97937084   -5.0694778   -5.0694778   -3.6004245   0.12882529   -5.0694778    1.4690533      1024000 
  163000   0.97812667   -5.0615988   -5.0615988   -3.5944117   0.11491124   -5.0615988    1.4671871      1024000 
  164000   0.97724086   -5.0479852   -5.0479852   -3.5821268   0.10032917   -5.0479852    1.4658584      1024000 
  165000   0.97986596   -5.0333742   -5.0333742   -3.5635782  0.081545675   -5.0333742     1.469796      1024000 
  166000   0.97704855   -5.0131524   -5.0131524   -3.5475825    0.0677867   -5.0131524    1.4655699      1024000 
  167000   0.97713496   -4.9945174   -4.9945174   -3.5288179  0.049355899   -4.9945174    1.4656995      1024000 
  168000   0.97744509   -4.9760839   -4.9760839   -3.5099192  0.035157754   -4.9760839    1.4661647      1024000 
  169000   0.97759857   -4.9570417   -4.9570417   -3.4906468  0.016755094   -4.9570417    1.4663949      1024000 
  170000   0.97744423   -4.9387519   -4.9387519   -3.4725885 0.0077672505   -4.9387519    1.4661634      1024000 
  171000   0.97786125   -4.9270132   -4.9270132   -3.4602242 -0.0089114098   -4.9270132    1.4667889      1024000 
  172000   0.97711254   -4.9166646   -4.9166646   -3.4509988 -0.016740886   -4.9166646    1.4656659      1024000 
  173000   0.97602699   -4.9130954   -4.9130954   -3.4490578  -0.02644637   -4.9130954    1.4640376      1024000 
  174000   0.97639604   -4.9104848   -4.9104848   -3.4458936 -0.020004684   -4.9104848    1.4645911      1024000 
  175000   0.97710163   -4.9181651   -4.9181651   -3.4525156 -0.0085464887   -4.9181651    1.4656495      1024000 
  176000   0.97841695   -4.9397735   -4.9397735   -3.4721511 0.0084234542   -4.9397735    1.4676225      1024000 
  177000   0.97812073   -4.9706022   -4.9706022    -3.503424  0.049677789   -4.9706022    1.4671781      1024000 
  178000   0.97750658    -5.016737    -5.016737   -3.5504801   0.11103319    -5.016737    1.4662569      1024000 
  179000   0.97749467   -5.0701349   -5.0701349   -3.6038959    0.1850323   -5.0701349    1.4662391      1024000 
  180000   0.97925353   -5.1334867   -5.1334867   -3.6646094   0.25284988   -5.1334867    1.4688774      1024000 
  181000   0.97876604    -5.194244    -5.194244   -3.7260979   0.33531884    -5.194244    1.4681461      1024000 
  182000   0.97889352   -5.2560226   -5.2560226   -3.7876853   0.44346239   -5.2560226    1.4683373      1024000 
  183000   0.97771949   -5.3187321   -5.3187321   -3.8521557   0.55468633   -5.3187321    1.4665763      1024000 
  184000   0.97606948   -5.3698582   -5.3698582   -3.9057569   0.66587775   -5.3698582    1.4641013      1024000 
  185000   0.97436692   -5.3897913   -5.3897913   -3.9282439    0.7072171   -5.3897913    1.4615475      1024000 
  186000   0.97577746   -5.3835912   -5.3835912   -3.9199279   0.69304713   -5.3835912    1.4636633      1024000 
  187000   0.97546002   -5.3660002   -5.3660002   -3.9028131   0.68256537   -5.3660002    1.4631871      1024000 
  188000   0.97777075   -5.3486887   -5.3486887   -3.8820355   0.66181621   -5.3486887    1.4666532      1024000 
  189000   0.97628234   -5.3295234   -5.3295234   -3.8651028   0.62901218   -5.3295234    1.4644206      1024000 
  190000   0.97515902    -5.314583    -5.314583   -3.8518474   0.56442091    -5.314583    1.4627356      1024000 
  191000   0.97610272   -5.2975086   -5.2975086   -3.8333574   0.49613525   -5.2975086    1.4641511      1024000 
  192000   0.97422564   -5.2688544   -5.2688544   -3.8075188   0.43946847   -5.2688544    1.4613355      1024000 
  193000   0.97223006   -5.2320496   -5.2320496   -3.7737074   0.38138737   -5.2320496    1.4583422      1024000 
  194000   0.97256521   -5.1863197   -5.1863197   -3.7274748   0.30861706   -5.1863197    1.4588449      1024000 
  195000   0.97239496   -5.1306464   -5.1306464   -3.6720568   0.22347988   -5.1306464    1.4585895      1024000 
  196000   0.97179279   -5.0614174   -5.0614174   -3.6037311   0.13871741   -5.0614174    1.4576863      1024000 
  197000   0.97219973   -4.9823806   -4.9823806    -3.524084  0.057853521   -4.9823806    1.4582967      1024000 
  198000   0.97130841   -4.9009445   -4.9009445   -3.4439849 -0.0076229516   -4.9009445    1.4569597      1024000 
  199000   0.97117163   -4.8218175   -4.8218175    -3.365063  -0.05393993   -4.8218175    1.4567545      1024000 
  200000   0.97119461   -4.7511735   -4.7511735   -3.2943845 -0.094944479   -4.7511735     1.456789      1024000 
  201000   0.97159298   -4.6853765   -4.6853765     -3.22799  -0.12489188   -4.6853765    1.4573866      1024000 
  202000   0.97120828   -4.6257457   -4.6257457   -3.1689362   -0.1436815   -4.6257457    1.4568095      1024000 
  203000   0.97164158   -4.5724975   -4.5724975    -3.115038  -0.15919523   -4.5724975    1.4574595      1024000 
  204000   0.97298125   -4.5241016   -4.5241016   -3.0646326  -0.17707554   -4.5241016     1.459469      1024000 
  205000   0.97125167   -4.4797888   -4.4797888   -3.0229142  -0.17477932   -4.4797888    1.4568746      1024000 
  206000   0.97185871   -4.4459075   -4.4459075   -2.9881224  -0.17640983   -4.4459075    1.4577851      1024000 
  207000    0.9717784   -4.4166196   -4.4166196   -2.9589549  -0.16753522   -4.4166196    1.4576647      1024000 
  208000   0.97248167    -4.400052    -4.400052   -2.9413324  -0.16661619    -4.400052    1.4587196      1024000 
  209000   0.97354157   -4.3902977   -4.3902977   -2.9299882  -0.15774857   -4.3902977    1.4603094      1024000 
  210000   0.97314281   -4.3946886   -4.3946886   -2.9349773  -0.15613152   -4.3946886    1.4597113      1024000 
  211000   0.97246175   -4.4040025   -4.4040025   -2.9453128   -0.1409931   -4.4040025    1.4586897      1024000 
  212000   0.97298447   -4.4260791   -4.4260791   -2.9666053  -0.13385859   -4.4260791    1.4594738      1024000 
  213000   0.97232116   -4.4505498   -4.4505498    -2.992071  -0.12142049   -4.4505498    1.4584788      1024000 
  214000   0.97431767   -4.4795375   -4.4795375    -3.018064  -0.11199167   -4.4795375    1.4614736      1024000 
  215000   0.97223505   -4.5088012   -4.5088012   -3.0504515 -0.092991758   -4.5088012    1.4583497      1024000 
  216000    0.9731755    -4.546813    -4.546813   -3.0870527 -0.080518345    -4.546813    1.4597603      1024000 
  217000   0.97236005   -4.5894126   -4.5894126   -3.1308754 -0.051478173   -4.5894126    1.4585371      1024000 
  218000   0.97254531    -4.634495    -4.634495   -3.1756799 -0.028068748    -4.634495     1.458815      1024000 
  219000   0.97318505   -4.6784263   -4.6784263   -3.2186516 0.0027753223   -4.6784263    1.4597747      1024000 
  220000   0.97349637   -4.7186617   -4.7186617   -3.2584201  0.021328059   -4.7186617    1.4602416      1024000 
  221000   0.97237995   -4.7496158   -4.7496158   -3.2910488  0.042565061   -4.7496158     1.458567      1024000 
  222000   0.97209173   -4.7694706   -4.7694706   -3.3113359  0.049607364   -4.7694706    1.4581347      1024000 
  223000    0.9704455   -4.7760383   -4.7760383   -3.3203729  0.054012935   -4.7760383    1.4556653      1024000 
  224000    0.9694073   -4.7774111   -4.7774111   -3.3233031  0.046032977   -4.7774111     1.454108      1024000 
  225000   0.97204868   -4.7760763   -4.7760763   -3.3180062  0.040900706   -4.7760763    1.4580701      1024000 
  226000   0.97024562   -4.7698869   -4.7698869   -3.3145214  0.035354371   -4.7698869    1.4553655      1024000 
  227000   0.97130968   -4.7688175   -4.7688175    -3.311856  0.029003718   -4.7688175    1.4569616      1024000 
  228000   0.96731893   -4.7687849   -4.7687849   -3.3178094  0.019242545   -4.7687849    1.4509755      1024000 
  229000   0.96905341   -4.7665997   -4.7665997   -3.3130225  0.027917918   -4.7665997    1.4535772      1024000 
  230000   0.96612954   -4.7697395   -4.7697395   -3.3205481  0.027617564   -4.7697395    1.4491914      1024000 
  231000   0.97038941   -4.7760374   -4.7760374   -3.3204562  0.033634788   -4.7760374    1.4555812      1024000 
  232000   0.97069504    -4.783659    -4.783659   -3.3276194  0.034854769    -4.783659    1.4560396      1024000 
  233000   0.96947654   -4.7913873   -4.7913873   -3.3371754  0.043986794   -4.7913873    1.4542119      1024000 
  234000   0.97091529   -4.8006711   -4.8006711   -3.3443011  0.047750504   -4.8006711      1.45637      1024000 
  235000   0.96801736   -4.8129552   -4.8129552    -3.360932  0.052082281   -4.8129552    1.4520231      1024000 
  236000   0.96908949    -4.821918    -4.821918   -3.3682866  0.065152946    -4.821918    1.4536313      1024000 
  237000   0.96998361    -4.833886    -4.833886   -3.3789135  0.065483301    -4.833886    1.4549725      1024000 
  238000   0.96805967   -4.8435547   -4.8435547   -3.3914681  0.074959051   -4.8435547    1.4520866      1024000 
  239000   0.97066037   -4.8482321   -4.8482321   -3.3922444  0.081149671   -4.8482321    1.4559876      1024000 
  240000   0.96751505   -4.8495869   -4.8495869   -3.3983173  0.086206277   -4.8495869    1.4512697      1024000 
  241000   0.96776283   -4.8485549   -4.8485549   -3.3969136  0.083280013   -4.8485549    1.4516413      1024000 
  242000   0.96885231   -4.8436026   -4.8436026    -3.390327  0.079391482   -4.8436026    1.4532756      1024000 
  243000   0.96625621   -4.8382353   -4.8382353   -3.3888538  0.063701654   -4.8382353    1.4493814      1024000 
  244000   0.96802678   -4.8293991   -4.8293991   -3.3773619  0.060016743   -4.8293991    1.4520373      1024000 
  245000   0.96694826   -4.8190221   -4.8190221   -3.3686026  0.050490809   -4.8190221    1.4504195      1024000 
  246000   0.96881843   -4.8044168   -4.8044168   -3.3511921  0.042140602   -4.8044168    1.4532247      1024000 
  247000   0.96691892   -4.7897662   -4.7897662   -3.3393907  0.028273489   -4.7897662    1.4503755      1024000 
  248000   0.96872043   -4.7772842   -4.7772842   -3.3242064  0.016153828   -4.7772842    1.4530777      1024000 
  249000   0.96592502   -4.7610933   -4.7610933   -3.3122087  0.011824745   -4.7610933    1.4488846      1024000 
  250000   0.96806853   -4.7486876   -4.7486876   -3.2965877 0.0052310853   -4.7486876    1.4520999      1024000 
  251000   0.96682037   -4.7344866   -4.7344866    -3.284259 0.0016903948   -4.7344866    1.4502277      1024000 
  252000   0.96515219   -4.7290581   -4.7290581   -3.2813328 -0.014918917   -4.7290581    1.4477254      1024000 
  253000    0.9678105   -4.7234772   -4.7234772   -3.2717644 -0.016862157   -4.7234772    1.4517128      1024000 
  254000   0.96507364   -4.7186716   -4.7186716   -3.2710641 -0.016697126   -4.7186716    1.4476076      1024000 
  255000   0.96509172     -4.71567     -4.71567   -3.2680354 -0.018474635     -4.71567    1.4476347      1024000 
  256000   0.96658592   -4.7160616   -4.7160616   -3.2661856 -0.017350028   -4.7160616     1.449876      1024000 
  257000    0.9661006   -4.7194707   -4.7194707   -3.2703227 -0.017389702   -4.7194707     1.449148      1024000 
  258000   0.96650716   -4.7264337   -4.7264337   -3.2766758 -0.011951229   -4.7264337    1.4497578      1024000 
  259000   0.96694558   -4.7370222   -4.7370222   -3.2866067 -0.011276408   -4.7370222    1.4504155      1024000 
  260000   0.96792759   -4.7508692   -4.7508692   -3.2989807 0.00034603974   -4.7508692    1.4518885      1024000 
  261000   0.96729314   -4.7654589   -4.7654589   -3.3145221 0.0083240987   -4.7654589    1.4509368      1024000 
  262000   0.96618694    -4.780717    -4.780717   -3.3314395  0.024725543    -4.780717    1.4492775      1024000 
  263000    0.9677058   -4.8042724   -4.8042724   -3.3527166  0.045205826   -4.8042724    1.4515558      1024000 
  264000   0.96673693   -4.8300968   -4.8300968   -3.3799944  0.073899411   -4.8300968    1.4501025      1024000 
  265000   0.96566654   -4.8591634   -4.8591634   -3.4106665   0.10355935   -4.8591634    1.4484969      1024000 
  266000   0.96617311   -4.8931331   -4.8931331   -3.4438764   0.13500229   -4.8931331    1.4492568      1024000 
  267000   0.96584271   -4.9284337   -4.9284337   -3.4796725   0.16879726   -4.9284337    1.4487612      1024000 
  268000   0.96557238    -4.963433    -4.963433   -3.5150773   0.20824639    -4.963433    1.4483557      1024000 
  269000   0.96813545   -5.0011122   -5.0011122    -3.548912   0.23098566   -5.0011122    1.4522003      1024000 
  270000   0.96639977   -5.0317714   -5.0317714   -3.5821746   0.27033642   -5.0317714    1.4495968      1024000 
  271000   0.96547145   -5.0574247   -5.0574247   -3.6092204   0.30375679   -5.0574247    1.4482043      1024000 
  272000   0.96559238   -5.0775633   -5.0775633   -3.6291776   0.32194397   -5.0775633    1.4483857      1024000 
  273000    0.9658464   -5.0819481   -5.0819481   -3.6331814   0.34300677   -5.0819481    1.4487667      1024000 
  274000   0.96558322   -5.0846414   -5.0846414   -3.6362694   0.33778212   -5.0846414    1.4483719      1024000 
  275000   0.96414036   -5.0763447   -5.0763447    -3.630137   0.32960174   -5.0763447    1.4462076      1024000 
  276000   0.96441957   -5.0652374   -5.0652374   -3.6186109   0.31851099   -5.0652374    1.4466265      1024000 
  277000   0.96413855   -5.0537183   -5.0537183   -3.6075134   0.29381343   -5.0537183    1.4462049      1024000 
  278000   0.96415254   -5.0378129   -5.0378129    -3.591587   0.28277681   -5.0378129    1.4462259      1024000 
  279000   0.96367266   -5.0225206   -5.0225206   -3.5770145   0.26213101   -5.0225206    1.4455061      1024000 
  280000    0.9616487   -5.0028685   -5.0028685   -3.5603983   0.24137056   -5.0028685    1.4424702      1024000 
  281000   0.96414281   -4.9891263   -4.9891263    -3.542915   0.21375922   -4.9891263    1.4462113      1024000 
  282000   0.96208217   -4.9681539   -4.9681539   -3.5250336   0.19050286   -4.9681539    1.4431204      1024000 
  283000   0.96257597   -4.9491151   -4.9491151   -3.5052541   0.16480283   -4.9491151    1.4438611      1024000 
  284000   0.96185371   -4.9254583   -4.9254583   -3.4826806   0.13814959   -4.9254583    1.4427777      1024000 
  285000   0.96112036   -4.8971655   -4.8971655   -3.4554879   0.11829447   -4.8971655    1.4416776      1024000 
  286000   0.96228859   -4.8699243   -4.8699243   -3.4264943  0.081573216   -4.8699243      1.44343      1024000 
  287000   0.96211329   -4.8367662   -4.8367662   -3.3935992  0.061595088   -4.8367662     1.443167      1024000 
  288000   0.96140541   -4.8039221   -4.8039221   -3.3618168  0.035961553   -4.8039221    1.4421052      1024000 
  289000   0.96131612   -4.7701027   -4.7701027   -3.3281314   0.01215198   -4.7701027    1.4419713      1024000 
  290000   0.96077197   -4.7394524   -4.7394524   -3.2982974 -0.008759614   -4.7394524    1.4411551      1024000 
  291000    0.9615984    -4.712509    -4.712509   -3.2701143 -0.026001405    -4.712509    1.4423947      1024000 
  292000   0.96153882   -4.6856609   -4.6856609   -3.2433556 -0.036138156   -4.6856609    1.4423053      1024000 
  293000   0.96140096   -4.6631481   -4.6631481   -3.2210495 -0.049761884   -4.6631481    1.4420985      1024000 
  294000   0.96097454   -4.6436771   -4.6436771   -3.2022182 -0.053768277   -4.6436771    1.4414589      1024000 
  295000   0.96086674     -4.63041     -4.63041   -3.1891127   -0.0652939     -4.63041    1.4412972      1024000 
  296000   0.96137737   -4.6216834   -4.6216834   -3.1796203 -0.071437508   -4.6216834    1.4420632      1024000 
  297000   0.96274278   -4.6157937   -4.6157937   -3.1716824 -0.069953122   -4.6157937    1.4441113      1024000 
  298000   0.96253918   -4.6146189   -4.6146189    -3.170813 -0.061782974   -4.6146189    1.4438059      1024000 
  299000   0.95998915   -4.6203302   -4.6203302   -3.1803494 -0.062942272   -4.6203302    1.4399808      1024000 
  300000   0.96056851    -4.630114    -4.630114   -3.1892641 -0.059849149    -4.630114    1.4408499      1024000 
  301000   0.96205768   -4.6427138   -4.6427138   -3.1996302  -0.04781147   -4.6427138    1.4430836      1024000 
  302000   0.95999897   -4.6620996   -4.6620996   -3.2221041 -0.043612842   -4.6620996    1.4399956      1024000 
  303000   0.96122719   -4.6821752   -4.6821752   -3.2403373 -0.031730796   -4.6821752    1.4418379      1024000 
  304000   0.96129919   -4.7053052   -4.7053052   -3.2633593 -0.014866531   -4.7053052    1.4419459      1024000 
  305000   0.96125192   -4.7310652   -4.7310652   -3.2891902 -0.00081150056   -4.7310652     1.441875      1024000 
  306000   0.96046205   -4.7553017   -4.7553017   -3.3146115  0.018239833   -4.7553017    1.4406902      1024000 
  307000   0.95988583   -4.7810195   -4.7810195   -3.3411936  0.038150223   -4.7810195    1.4398259      1024000 
  308000   0.96142829      -4.8065      -4.8065   -3.3643605  0.050340431      -4.8065    1.4421395      1024000 
  309000   0.96142373   -4.8274569   -4.8274569   -3.3853242  0.071417328   -4.8274569    1.4421327      1024000 
  310000     0.960687   -4.8465089   -4.8465089   -3.4054813   0.08656414   -4.8465089    1.4410276      1024000 
  311000   0.95963653   -4.8628301   -4.8628301   -3.4233782   0.10010826   -4.8628301    1.4394519      1024000 
  312000   0.96053003   -4.8740798   -4.8740798   -3.4332877    0.1038981   -4.8740798    1.4407922      1024000 
  313000   0.95690142   -4.8786242   -4.8786242   -3.4432749   0.11168305   -4.8786242    1.4353493      1024000 
  314000   0.95925646   -4.8803803   -4.8803803   -3.4414985   0.10165425   -4.8803803    1.4388818      1024000 
  315000    0.9585037   -4.8725504   -4.8725504   -3.4347977   0.10217053   -4.8725504    1.4377527      1024000 
  316000   0.95879017   -4.8602169   -4.8602169   -3.4220345  0.092701061   -4.8602169    1.4381824      1024000 
  317000   0.95893111   -4.8447949   -4.8447949   -3.4064011  0.076644049   -4.8447949    1.4383938      1024000 
  318000   0.95809413   -4.8275092   -4.8275092   -3.3903709  0.063258055   -4.8275092    1.4371383      1024000 
  319000   0.95854881   -4.8095274   -4.8095274   -3.3717071  0.046561246   -4.8095274    1.4378203      1024000 
  320000   0.95734522   -4.7865602   -4.7865602   -3.3505452  0.031275924   -4.7865602     1.436015      1024000 
  321000   0.95805304   -4.7661013   -4.7661013   -3.3290246  0.012115614   -4.7661013    1.4370767      1024000 
  322000   0.95703666   -4.7432493   -4.7432493   -3.3076972 0.0017133608   -4.7432493    1.4355521      1024000 
  323000   0.95787457   -4.7250998   -4.7250998   -3.2882909 -0.016695265   -4.7250998     1.436809      1024000 
  324000   0.95649678   -4.7049336   -4.7049336   -3.2701913 -0.020567962   -4.7049336    1.4347423      1024000 
  325000   0.95704849   -4.6887396   -4.6887396   -3.2531698 -0.028474445   -4.6887396    1.4355699      1024000 
  326000   0.95781366   -4.6784996   -4.6784996    -3.241782 -0.038103449   -4.6784996    1.4367176      1024000 
  327000   0.95729838    -4.669037    -4.669037   -3.2330923  -0.04177856    -4.669037    1.4359447      1024000 
  328000   0.95810277   -4.6649921   -4.6649921   -3.2278408 -0.042185305   -4.6649921    1.4371513      1024000 
  329000   0.95635441   -4.6627647   -4.6627647   -3.2282359 -0.044047305   -4.6627647    1.4345287      1024000 
  330000   0.95821656   -4.6667832   -4.6667832   -3.2294613 -0.046088011   -4.6667832     1.437322      1024000 
  331000   0.95718834   -4.6721517   -4.6721517   -3.2363721 -0.042746717   -4.6721517    1.4357796      1024000 
  332000   0.95479378   -4.6805523   -4.6805523   -3.2483645 -0.032927416   -4.6805523    1.4321878      1024000 
  333000   0.95706954    -4.693857    -4.693857   -3.2582556 -0.029307913    -4.693857    1.4356014      1024000 
  334000   0.95614049   -4.7075094   -4.7075094   -3.2733015 -0.0098767296   -4.7075094    1.4342079      1024000 
  335000   0.95707606   -4.7265935   -4.7265935   -3.2909823 -0.0089168132   -4.7265935    1.4356112      1024000 
  336000   0.95730485    -4.742951    -4.742951   -3.3069966 0.0095342697    -4.742951    1.4359544      1024000 
  337000   0.95633901   -4.7618269   -4.7618269   -3.3273212  0.021573267   -4.7618269    1.4345056      1024000 
  338000   0.95714469   -4.7833709   -4.7833709   -3.3476567  0.031189962   -4.7833709    1.4357142      1024000 
  339000   0.95627334    -4.801359    -4.801359   -3.3669519  0.048722867    -4.801359    1.4344071      1024000 
  340000   0.95631932    -4.817792    -4.817792   -3.3833159  0.059849592    -4.817792    1.4344761      1024000 
  341000   0.95565783   -4.8344971   -4.8344971   -3.4010133  0.070492046   -4.8344971    1.4334839      1024000 
  342000   0.95623691   -4.8432983   -4.8432983   -3.4089458  0.086526468   -4.8432983    1.4343525      1024000 
  343000     0.955112   -4.8546809   -4.8546809   -3.4220158  0.083179161   -4.8546809    1.4326651      1024000 
  344000   0.95294792   -4.8595977   -4.8595977   -3.4301787  0.083719213   -4.8595977     1.429419      1024000 
  345000   0.95539753   -4.8594091   -4.8594091   -3.4263157  0.085577876   -4.8594091    1.4330934      1024000 
  346000   0.95360043   -4.8549911   -4.8549911   -3.4245933  0.085149889   -4.8549911    1.4303978      1024000 
  347000   0.95414363   -4.8498449   -4.8498449   -3.4186323   0.07850583   -4.8498449    1.4312126      1024000 
  348000   0.95430507   -4.8391013   -4.8391013   -3.4076466  0.065118633   -4.8391013    1.4314547      1024000 
  349000   0.95413798   -4.8295497   -4.8295497   -3.3983456  0.050385146   -4.8295497    1.4312041      1024000 
  350000   0.95332365   -4.8076311   -4.8076311   -3.3776484  0.051115991   -4.8076311    1.4299826      1024000 
  351000   0.95272254   -4.7940605   -4.7940605   -3.3649795  0.032519711   -4.7940605    1.4290809      1024000 
  352000   0.95278987   -4.7772636   -4.7772636   -3.3480817  0.022028444   -4.7772636    1.4291819      1024000 
  353000   0.95438365   -4.7619726   -4.7619726   -3.3303999 0.0071295157   -4.7619726    1.4315726      1024000 
  354000   0.95376636   -4.7485222   -4.7485222   -3.3178755 -0.0028282696   -4.7485222    1.4306467      1024000 
  355000   0.95422763   -4.7349547   -4.7349547   -3.3036161 -0.0088756756   -4.7349547    1.4313386      1024000 
  356000   0.95316441   -4.7252792   -4.7252792   -3.2955354 -0.022189769   -4.7252792    1.4297438      1024000 
  357000   0.95451756   -4.7123102   -4.7123102   -3.2805367 -0.017927217   -4.7123102    1.4317735      1024000 
  358000   0.95439582   -4.7079141   -4.7079141   -3.2763232 -0.021373786   -4.7079141    1.4315909      1024000 
  359000   0.95303641   -4.7041528   -4.7041528    -3.274601 -0.027575116   -4.7041528    1.4295518      1024000 
  360000   0.95300362   -4.7050929   -4.7050929   -3.2755903 -0.027649197   -4.7050929    1.4295026      1024000 
  361000   0.95145949   -4.7079407   -4.7079407   -3.2807544 -0.022690933   -4.7079407    1.4271864      1024000 
  362000   0.95080708   -4.7156662   -4.7156662   -3.2894584   -0.0214688   -4.7156662    1.4262078      1024000 
  363000    0.9529055   -4.7239154   -4.7239154     -3.29456 -0.017358896   -4.7239154    1.4293554      1024000 
  364000   0.95327646   -4.7344715   -4.7344715   -3.3045596 -0.0067971118   -4.7344715    1.4299118      1024000 
  365000   0.95180787   -4.7450998   -4.7450998   -3.3173908 0.0024650051   -4.7450998    1.4277089      1024000 
  366000   0.95217334   -4.7644198   -4.7644198   -3.3361626 0.0033382355   -4.7644198    1.4282571      1024000 
  367000   0.95189406   -4.7774538   -4.7774538   -3.3496156  0.020503963   -4.7774538    1.4278382      1024000 
  368000   0.95266306   -4.7934898   -4.7934898    -3.364498  0.025146269   -4.7934898    1.4289917      1024000 
  369000   0.95238799   -4.8070623   -4.8070623   -3.3784832  0.039930872   -4.8070623    1.4285791      1024000 
  370000   0.95314867   -4.8245555   -4.8245555   -3.3948353  0.045654133   -4.8245555    1.4297201      1024000 
  371000   0.95169588   -4.8335585   -4.8335585   -3.4060175  0.058637107   -4.8335585     1.427541      1024000 
  372000    0.9510611   -4.8453094   -4.8453094   -3.4187206  0.061136235   -4.8453094    1.4265888      1024000 
  373000   0.95063505   -4.8518754   -4.8518754   -3.4259257  0.074374363   -4.8518754    1.4259497      1024000 
  374000   0.95226938   -4.8575131   -4.8575131   -3.4291119  0.073088798   -4.8575131    1.4284012      1024000 
  375000    0.9506286   -4.8567203   -4.8567203   -3.4307803  0.075509838   -4.8567203      1.42594      1024000 
  376000   0.95129325   -4.8530243   -4.8530243   -3.4260872   0.08023739   -4.8530243     1.426937      1024000 
  377000   0.95176253   -4.8525241   -4.8525241   -3.4248831  0.065746768   -4.8525241    1.4276409      1024000 
  378000   0.94953821   -4.8487421   -4.8487421   -3.4244376  0.055246679   -4.8487421    1.4243045      1024000 
  379000   0.95051573   -4.8390307   -4.8390307     -3.41326  0.047799403   -4.8390307    1.4257707      1024000 
  380000   0.95095449   -4.8297031   -4.8297031   -3.4032742  0.041715488   -4.8297031    1.4264289      1024000 
  381000   0.95086442   -4.8192029   -4.8192029   -3.3929092  0.028851331   -4.8192029    1.4262938      1024000 
  382000   0.95153806   -4.8102746   -4.8102746   -3.3829703  0.022485974   -4.8102746    1.4273042      1024000 
  383000   0.95067491   -4.8022646   -4.8022646   -3.3762551  0.020150126   -4.8022646    1.4260095      1024000 
  384000   0.94877581   -4.8015515   -4.8015515   -3.3783906 0.0051674614   -4.8015515    1.4231609      1024000 
  385000   0.94996655   -4.8007136   -4.8007136   -3.3757666  0.011003343   -4.8007136     1.424947      1024000 
  386000   0.95011389   -4.8085898   -4.8085898   -3.3834218  0.011369557   -4.8085898     1.425168      1024000 
  387000    0.9505544   -4.8202602   -4.8202602   -3.3944314  0.019208815   -4.8202602    1.4258287      1024000 
  388000   0.94746736   -4.8332093   -4.8332093   -3.4120111  0.040246665   -4.8332093    1.4211982      1024000 
  389000    0.9506487   -4.8528456   -4.8528456   -3.4268754  0.054869527   -4.8528456    1.4259702      1024000 
  390000   0.95036837   -4.8761398   -4.8761398   -3.4505901  0.069621804   -4.8761398    1.4255497      1024000 
  391000    0.9492415   -4.8977085   -4.8977085   -3.4738491  0.094185972   -4.8977085    1.4238594      1024000 
  392000   0.94914911   -4.9173695   -4.9173695   -3.4936487   0.11943185   -4.9173695    1.4237208      1024000 
  393000   0.94910724   -4.9393488   -4.9393488   -3.5156908   0.13738216   -4.9393488     1.423658      1024000 
  394000   0.95129952   -4.9581149   -4.9581149   -3.5311684   0.15268199   -4.9581149    1.4269464      1024000 
  395000   0.95174656   -4.9671841   -4.9671841   -3.5395671   0.15296167   -4.9671841     1.427617      1024000 
  396000   0.94774123   -4.9691287   -4.9691287   -3.5475197   0.15214432   -4.9691287     1.421609      1024000 
  397000   0.94889984   -4.9636575   -4.9636575   -3.5403106   0.15019076   -4.9636575    1.4233469      1024000 
  398000   0.94783434   -4.9604061   -4.9604061   -3.5386574   0.13655694   -4.9604061    1.4217487      1024000 
  399000   0.94693245   -4.9547548   -4.9547548    -3.534359   0.13186782   -4.9547548    1.4203958      1024000 
  400000   0.94592714   -4.9515038   -4.9515038   -3.5326159   0.12211862   -4.9515038    1.4188879      1024000 
  401000   0.94677422   -4.9454907   -4.9454907   -3.5253322   0.12856615   -4.9454907    1.4201585      1024000 
  402000   0.94556191   -4.9440026   -4.9440026   -3.5256626    0.1169073   -4.9440026      1.41834      1024000 
  403000   0.94905776   -4.9423413   -4.9423413   -3.5187575   0.11691231   -4.9423413    1.4235838      1024000 
  404000   0.94777495   -4.9424619   -4.9424619   -3.5208023   0.11415842   -4.9424619    1.4216596      1024000 
  405000   0.94566376   -4.9389138   -4.9389138    -3.520421   0.12128868   -4.9389138    1.4184928      1024000 
  406000   0.94916311    -4.941154    -4.941154   -3.5174122   0.10891325    -4.941154    1.4237418      1024000 
  407000   0.94659674   -4.9350542   -4.9350542   -3.5151619   0.10902447   -4.9350542    1.4198923      1024000 
  408000   0.94777669   -4.9216099   -4.9216099   -3.4999477   0.11102974   -4.9216099    1.4216622      1024000 
  409000   0.94614728   -4.9073026   -4.9073026   -3.4880845  0.096418104   -4.9073026    1.4192181      1024000 
  410000   0.94573423   -4.8893063   -4.8893063   -3.4707078  0.075081927   -4.8893063    1.4185985      1024000 
  411000    0.9460472   -4.8688977   -4.8688977   -3.4498298    0.0545381   -4.8688977     1.419068      1024000 
  412000   0.94609977   -4.8469667   -4.8469667   -3.4278199  0.034477895   -4.8469667    1.4191468      1024000 
  413000   0.94514419   -4.8242308   -4.8242308   -3.4065174  0.025753695   -4.8242308    1.4177134      1024000 
  414000   0.94749425   -4.8068645   -4.8068645    -3.385626 0.0022106314   -4.8068645    1.4212385      1024000 
  415000   0.94655086   -4.7867397   -4.7867397   -3.3669163 0.0035894565   -4.7867397    1.4198234      1024000 
  416000   0.94394847   -4.7726986   -4.7726986   -3.3567787 -0.016661948   -4.7726986    1.4159199      1024000 
  417000   0.94563624   -4.7564766   -4.7564766   -3.3380251 -0.018260714   -4.7564766    1.4184515      1024000 
  418000   0.94572237   -4.7436293   -4.7436293   -3.3250486 -0.022119956   -4.7436293    1.4185807      1024000 
  419000   0.94536149   -4.7351742   -4.7351742   -3.3171348 -0.025098553   -4.7351742    1.4180394      1024000 
  420000   0.94617882   -4.7265315   -4.7265315   -3.3072661 -0.030517204   -4.7265315    1.4192654      1024000 
  421000   0.94443038   -4.7163642   -4.7163642   -3.2997215 -0.028971725   -4.7163642    1.4166427      1024000 
  422000   0.94603771   -4.7082093   -4.7082093   -3.2891556 -0.032302694   -4.7082093    1.4190537      1024000 
  423000   0.94604435   -4.6979232   -4.6979232   -3.2788595 -0.036292339   -4.6979232    1.4190637      1024000 
  424000   0.94360498   -4.6892808   -4.6892808   -3.2738762 -0.048286675   -4.6892808    1.4154046      1024000 
  425000   0.94596085   -4.6793936   -4.6793936   -3.2604552 -0.049151704   -4.6793936    1.4189384      1024000 
  426000   0.94504096   -4.6683456   -4.6683456    -3.250787 -0.052962954   -4.6683456    1.4175586      1024000 
  427000   0.94392544   -4.6601043   -4.6601043    -3.244219 -0.060667642   -4.6601043    1.4158853      1024000 
  428000   0.94401119   -4.6500572   -4.6500572   -3.2340432 -0.062619917   -4.6500572     1.416014      1024000 
  429000   0.94431085   -4.6414005   -4.6414005    -3.224937 -0.070749666   -4.6414005    1.4164634      1024000 
  430000   0.94406029   -4.6343896   -4.6343896    -3.218302 -0.074377434   -4.6343896    1.4160876      1024000 
  431000   0.94411823   -4.6278209   -4.6278209   -3.2116464 -0.079345066   -4.6278209    1.4161745      1024000 
  432000   0.94326137   -4.6251715   -4.6251715   -3.2102823 -0.085009729   -4.6251715    1.4148892      1024000 
  433000   0.94536174     -4.62261     -4.62261   -3.2045703 -0.083208153     -4.62261    1.4180398      1024000 
  434000   0.94196909   -4.6207747   -4.6207747   -3.2078239  -0.07149533   -4.6207747    1.4129508      1024000 
  435000    0.9459809   -4.6251242   -4.6251242   -3.2061557 -0.074656495   -4.6251242    1.4189685      1024000 
  436000   0.94326207    -4.631183    -4.631183   -3.2162928 -0.073923275    -4.631183    1.4148903      1024000 
  437000   0.94431448   -4.6355352   -4.6355352   -3.2190664 -0.062313229   -4.6355352    1.4164689      1024000 
  438000   0.94208863   -4.6440896   -4.6440896   -3.2309595 -0.064044873   -4.6440896    1.4131301      1024000 
  439000   0.94297533   -4.6545142   -4.6545142   -3.2400541 -0.052003496   -4.6545142    1.4144602      1024000 
  440000    0.9435401   -4.6647008   -4.6647008   -3.2493935 -0.051074697   -4.6647008    1.4153073      1024000 
  441000    0.9450493   -4.6778365   -4.6778365   -3.2602654 -0.042169159   -4.6778365    1.4175711      1024000 
  442000   0.94416848   -4.6950389   -4.6950389    -3.278789 -0.041866811   -4.6950389    1.4162499      1024000 
  443000   0.94222278   -4.7080369   -4.7080369   -3.2947056 -0.034659806   -4.7080369    1.4133313      1024000 
  444000    0.9424446   -4.7214278   -4.7214278   -3.3077638 -0.021076009   -4.7214278    1.4136641      1024000 
  445000    0.9407599   -4.7361475   -4.7361475   -3.3250105 -0.016609164   -4.7361475     1.411137      1024000 
  446000   0.94298632   -4.7520179   -4.7520179   -3.3375413 -0.0074388234   -4.7520179    1.4144766      1024000 
  447000   0.94133047   -4.7647538   -4.7647538   -3.3527609 -0.00056004568   -4.7647538    1.4119929      1024000 
  448000    0.9423067   -4.7773749   -4.7773749   -3.3639177 0.0031197748   -4.7773749    1.4134572      1024000 
  449000   0.94048673   -4.7882868   -4.7882868   -3.3775595  0.012206088   -4.7882868    1.4107273      1024000 
  450000   0.94178991   -4.7996899   -4.7996899   -3.3870078  0.017060526   -4.7996899     1.412682      1024000 
  451000   0.94059927   -4.8059744   -4.8059744   -3.3950784  0.025239747   -4.8059744    1.4108961      1024000 
  452000   0.94103963   -4.8151369   -4.8151369   -3.4035802  0.020799712   -4.8151369    1.4115566      1024000 
  453000   0.93954318   -4.8169621   -4.8169621   -3.4076501  0.031973725   -4.8169621    1.4093119      1024000 
  454000   0.94029312    -4.819963    -4.819963   -3.4095262  0.030678294    -4.819963    1.4104369      1024000 
  455000   0.93964638   -4.8181774   -4.8181774   -3.4087107  0.028036754   -4.8181774    1.4094667      1024000 
  456000   0.94142954   -4.8156537   -4.8156537   -3.4035123  0.032993414   -4.8156537    1.4121415      1024000 
  457000   0.93991099   -4.8158779   -4.8158779   -3.4060142  0.020184783   -4.8158779    1.4098637      1024000 
  458000   0.93987182   -4.8097189   -4.8097189    -3.399914  0.023081487   -4.8097189    1.4098049      1024000 
  459000   0.93933638   -4.8090563   -4.8090563   -3.4000546 0.0098260253   -4.8090563    1.4090018      1024000 
  460000   0.94076415   -4.8019563   -4.8019563   -3.3908129  0.011242542   -4.8019563    1.4111434      1024000 
  461000    0.9412015   -4.7981919   -4.7981919   -3.3863925 0.0084613503   -4.7981919    1.4117994      1024000 
  462000    0.9395741   -4.7933148   -4.7933148   -3.3839565  0.010560698   -4.7933148    1.4093583      1024000 
  463000   0.94107801   -4.7908145   -4.7908145   -3.3792003 0.0069011404   -4.7908145    1.4116142      1024000 
  464000   0.94137801   -4.7882115   -4.7882115   -3.3761473 0.0079838662   -4.7882115    1.4120642      1024000 
  465000   0.93965348   -4.7864192   -4.7864192   -3.3769418 -0.001016836   -4.7864192    1.4094774      1024000 
  466000   0.93983856   -4.7864055   -4.7864055   -3.3766505 -0.0018762018   -4.7864055     1.409755      1024000 
  467000   0.93954172   -4.7863272   -4.7863272   -3.3770175 -0.00090092913   -4.7863272    1.4093098      1024000 
  468000   0.93996593   -4.7890348   -4.7890348   -3.3790887 -0.0055466964   -4.7890348    1.4099461      1024000 
  469000   0.93873001   -4.7908367   -4.7908367   -3.3827445 -0.0074702882   -4.7908367    1.4080922      1024000 
  470000   0.93745099   -4.7937062   -4.7937062   -3.3875325 -0.0070322527   -4.7937062    1.4061737      1024000 
  471000   0.93877405   -4.7953624   -4.7953624   -3.3872041 -0.00029463774   -4.7953624    1.4081583      1024000 
  472000   0.93814594   -4.7988155   -4.7988155   -3.3915994  0.012783741   -4.7988155    1.4072161      1024000 
  473000   0.93883516   -4.8030803   -4.8030803   -3.3948304 0.0079468079   -4.8030803    1.4082499      1024000 
  474000   0.93822118   -4.8068393   -4.8068393   -3.3995104  0.006500982   -4.8068393    1.4073289      1024000 
  475000    0.9403267   -4.8110511   -4.8110511   -3.4005639 0.0057636397   -4.8110511    1.4104872      1024000 
  476000    0.9374433   -4.8137314   -4.8137314   -3.4075693  0.013142662   -4.8137314    1.4061621      1024000 
  477000   0.93597895   -4.8188591   -4.8188591   -3.4148935  0.018692427   -4.8188591    1.4039656      1024000 
  478000   0.93624879   -4.8216827   -4.8216827   -3.4173123  0.015718886   -4.8216827    1.4043704      1024000 
  479000   0.93930326   -4.8267848   -4.8267848   -3.4178328  0.024449146   -4.8267848    1.4089521      1024000 
  480000   0.93895958   -4.8305494   -4.8305494   -3.4221129   0.02141703   -4.8305494    1.4084365      1024000 
  481000   0.93741997    -4.832502    -4.832502   -3.4263749  0.028603353    -4.832502    1.4061271      1024000 
  482000    0.9366621   -4.8374183   -4.8374183   -3.4324279  0.020676307   -4.8374183    1.4049903      1024000 
  483000   0.93598982   -4.8399763   -4.8399763   -3.4359944  0.028531832   -4.8399763    1.4039819      1024000 
  484000   0.93715578   -4.8458025   -4.8458025   -3.4400716  0.024890687   -4.8458025    1.4057308      1024000 
  485000   0.93748285   -4.8457292   -4.8457292   -3.4395077  0.046460262   -4.8457292    1.4062215      1024000 
  486000   0.93651543   -4.8535942   -4.8535942   -3.4488239  0.025692104   -4.8535942    1.4047703      1024000 
  487000   0.93439794   -4.8520813   -4.8520813   -3.4504872  0.036215533   -4.8520813    1.4015941      1024000 
  488000   0.93542735   -4.8551285   -4.8551285   -3.4519903  0.036309525   -4.8551285    1.4031382      1024000 
  489000   0.93454933   -4.8565307   -4.8565307   -3.4547096   0.03291116   -4.8565307    1.4018212      1024000 
  490000   0.93494243    -4.859663    -4.859663   -3.4572522  0.026375923    -4.859663    1.4024108      1024000 
  491000   0.93646539   -4.8601807   -4.8601807   -3.4554854  0.035378059   -4.8601807    1.4046953      1024000 
  492000   0.93575569   -4.8596742   -4.8596742   -3.4560434  0.045132543   -4.8596742    1.4036307      1024000 
  493000   0.93624775   -4.8625765   -4.8625765   -3.4582077  0.039984325   -4.8625765    1.4043688      1024000 
  494000    0.9360695   -4.8642943   -4.8642943   -3.4601928  0.039661993   -4.8642943    1.4041014      1024000 
  495000   0.93449275   -4.8650889   -4.8650889   -3.4633525  0.038584087   -4.8650889    1.4017363      1024000 
  496000   0.93399709   -4.8664887   -4.8664887   -3.4654959  0.044872733   -4.8664887    1.4009928      1024000 
  497000   0.93439304   -4.8694082   -4.8694082   -3.4678215   0.04006927   -4.8694082    1.4015868      1024000 
  498000   0.93655411   -4.8708786   -4.8708786   -3.4660503  0.037527515   -4.8708786    1.4048284      1024000 
  499000   0.93429035   -4.8694244   -4.8694244   -3.4679917  0.045349477   -4.8694244    1.4014327      1024000 
  500000   0.93403629    -4.869165    -4.869165   -3.4681133  0.039479585    -4.869165    1.4010516      1024000 
  501000   0.93326375   -4.8687904   -4.8687904   -3.4688976  0.040012313   -4.8687904    1.3998928      1024000 
  502000   0.93373668   -4.8682884   -4.8682884   -3.4676862  0.036241914   -4.8682884    1.4006022      1024000 
  503000     0.934103   -4.8655148   -4.8655148   -3.4643631  0.035504702   -4.8655148    1.4011517      1024000 
  504000    0.9338376   -4.8640857   -4.8640857   -3.4633321  0.032136479   -4.8640857    1.4007536      1024000 
  505000   0.93480636   -4.8589599   -4.8589599   -3.4567532  0.031218965   -4.8589599    1.4022067      1024000 
  506000   0.93458758   -4.8539935   -4.8539935    -3.452115    0.0294855   -4.8539935    1.4018786      1024000 
  507000   0.93470612   -4.8493623   -4.8493623    -3.447306  0.031335539   -4.8493623    1.4020564      1024000 
  508000   0.93464524   -4.8493692   -4.8493692   -3.4474041  0.022153164   -4.8493692    1.4019651      1024000 
  509000   0.93248157   -4.8461948   -4.8461948   -3.4474752   0.01852341   -4.8461948    1.3987196      1024000 
  510000   0.93263994   -4.8423279   -4.8423279   -3.4433708  0.016516507   -4.8423279    1.3989571      1024000 
  511000   0.93161779   -4.8408698   -4.8408698    -3.443446  0.013414623   -4.8408698    1.3974239      1024000 
  512000   0.93265392   -4.8402197   -4.8402197   -3.4412417  0.013802662   -4.8402197    1.3989781      1024000 
  513000   0.93067271   -4.8337201   -4.8337201   -3.4377138  0.019430329   -4.8337201    1.3960063      1024000 
  514000   0.93279935   -4.8332426   -4.8332426   -3.4340463 0.0080435102   -4.8332426    1.3991962      1024000 
  515000   0.93456333   -4.8305897   -4.8305897   -3.4287475 0.0034257708   -4.8305897    1.4018422      1024000 
  516000   0.93314411   -4.8261826   -4.8261826   -3.4264692 0.0075924515   -4.8261826    1.3997134      1024000 
  517000   0.93217195   -4.8223293   -4.8223293   -3.4240742 0.0038640871   -4.8223293    1.3982551      1024000 
  518000   0.93304336   -4.8203984   -4.8203984   -3.4208362 -0.00042646378   -4.8203984    1.3995622      1024000 
  519000    0.9327102   -4.8176655   -4.8176655    -3.418603 0.0010891552   -4.8176655    1.3990625      1024000 
  520000   0.93243555   -4.8129195   -4.8129195   -3.4142689 -0.0044652548   -4.8129195    1.3986505      1024000 
  521000   0.93358983   -4.8101954   -4.8101954   -3.4098134  -0.00839307   -4.8101954    1.4003819      1024000 
  522000   0.93491732   -4.8058384   -4.8058384   -3.4034652  -0.00769615   -4.8058384    1.4023732      1024000 
  523000   0.93287712   -4.8033474   -4.8033474   -3.4040345 -0.0083604316   -4.8033474    1.3993129      1024000 
  524000   0.93125038   -4.8024189   -4.8024189   -3.4055461 -0.015421396   -4.8024189    1.3968728      1024000 
  525000   0.93246709   -4.7999411   -4.7999411   -3.4012433 -0.011559702   -4.7999411    1.3986978      1024000 
  526000   0.93204025     -4.79928     -4.79928   -3.4012224 -0.016712542     -4.79928    1.3980576      1024000 
  527000   0.93209697   -4.8019567   -4.8019567    -3.403814  -0.02108736   -4.8019567    1.3981427      1024000 
  528000   0.93071552   -4.8014818   -4.8014818   -3.4054113  -0.01408091   -4.8014818    1.3960705      1024000 
  529000   0.93207129   -4.8011217   -4.8011217   -3.4030176 -0.012253659   -4.8011217    1.3981041      1024000 
  530000   0.93322757   -4.8031176   -4.8031176   -3.4032791 -0.016756978   -4.8031176    1.3998386      1024000 
  531000   0.93022393   -4.8026071   -4.8026071    -3.407274 -0.011179518   -4.8026071    1.3953331      1024000 
  532000   0.93015062   -4.8029745   -4.8029745   -3.4077513 -0.013526906   -4.8029745    1.3952231      1024000 
  533000   0.93087536   -4.8077191   -4.8077191   -3.4114089 -0.019709372   -4.8077191    1.3963102      1024000 
  534000   0.92962282   -4.8049232   -4.8049232   -3.4104917 -0.012278657   -4.8049232    1.3944314      1024000 
  535000    0.9299772   -4.8094734   -4.8094734   -3.4145104 -0.011947351   -4.8094734     1.394963      1024000 
  536000   0.93070963   -4.8065669   -4.8065669   -3.4105053 -0.0048764119   -4.8065669    1.3960616      1024000 
  537000   0.93087899   -4.8101462   -4.8101462   -3.4138305 -0.0073422155   -4.8101462    1.3963157      1024000 
  538000   0.93203787   -4.8139498   -4.8139498   -3.4158958 -0.014268484   -4.8139498     1.398054      1024000 
  539000   0.93015936   -4.8139983   -4.8139983   -3.4187621 -0.010462203   -4.8139983    1.3952362      1024000 
  540000   0.93064076   -4.8172958   -4.8172958   -3.4213375 -0.008580566   -4.8172958    1.3959583      1024000 
  541000    0.9302588   -4.8224633   -4.8224633   -3.4270779 -0.0048954235   -4.8224633    1.3953854      1024000 
  542000   0.92928103   -4.8254055   -4.8254055   -3.4314867 -0.0079663628   -4.8254055    1.3939188      1024000 
  543000   0.92928087   -4.8306071   -4.8306071   -3.4366886 0.00048693334   -4.8306071    1.3939185      1024000 
  544000   0.92896828   -4.8338307   -4.8338307   -3.4403811 0.0058213589   -4.8338307    1.3934496      1024000 
  545000   0.93078265   -4.8418613   -4.8418613   -3.4456901 0.0052249018   -4.8418613    1.3961712      1024000 
  546000   0.93087251   -4.8452484   -4.8452484   -3.4489424  0.013300251   -4.8452484     1.396306      1024000 
  547000   0.92881844     -4.84991     -4.84991   -3.4566851  0.012768318     -4.84991    1.3932249      1024000 
  548000    0.9270736   -4.8550674   -4.8550674   -3.4644598 0.0095663926   -4.8550674    1.3906076      1024000 
  549000   0.92761075   -4.8587309   -4.8587309   -3.4673176   0.01384692   -4.8587309    1.3914133      1024000 
  550000   0.92815469   -4.8613136   -4.8613136   -3.4690843  0.022633921   -4.8613136    1.3922292      1024000 
  551000    0.9276958   -4.8660332   -4.8660332   -3.4744923  0.015964997   -4.8660332    1.3915409      1024000 
  552000   0.92838317   -4.8687307   -4.8687307   -3.4761587  0.019890242   -4.8687307     1.392572      1024000 
  553000   0.92822716   -4.8702038   -4.8702038   -3.4778659  0.033040405   -4.8702038     1.392338      1024000 
  554000    0.9283022   -4.8733824   -4.8733824   -3.4809319   0.02810274   -4.8733824    1.3924505      1024000 
  555000   0.92683833   -4.8794517   -4.8794517    -3.489197  0.028348277   -4.8794517    1.3902547      1024000 
  556000   0.92708897   -4.8811154   -4.8811154   -3.4904847  0.036998306   -4.8811154    1.3906307      1024000 
  557000   0.92754614   -4.8858476   -4.8858476   -3.4945311  0.031050622   -4.8858476    1.3913164      1024000 
  558000    0.9286368   -4.8899251   -4.8899251   -3.4969727  0.030066891   -4.8899251    1.3929524      1024000 
  559000    0.9275833   -4.8920058   -4.8920058   -3.5006337  0.033590204   -4.8920058    1.3913722      1024000 
  560000   0.92652365   -4.8921578   -4.8921578   -3.5023751  0.042576504   -4.8921578    1.3897827      1024000 
  561000   0.92697636   -4.8955593   -4.8955593   -3.5050976  0.037130537   -4.8955593    1.3904618      1024000 
  562000   0.92595553   -4.8982964   -4.8982964   -3.5093659  0.034336831   -4.8982964    1.3889305      1024000 
  563000   0.92734282   -4.9009418   -4.9009418   -3.5099304   0.03567088   -4.9009418    1.3910114      1024000 
  564000   0.92565678   -4.8989774   -4.8989774    -3.510495  0.041344849   -4.8989774    1.3884824      1024000 
  565000   0.92593815   -4.9000251   -4.9000251   -3.5111206  0.034687318   -4.9000251    1.3889044      1024000 
  566000    0.9268817     -4.90036     -4.90036   -3.5100402  0.034801984     -4.90036    1.3903198      1024000 
  567000   0.92505067   -4.9004106   -4.9004106   -3.5128373   0.03410365   -4.9004106    1.3875732      1024000 
  568000   0.92597394   -4.8987227   -4.8987227   -3.5097646  0.033823507   -4.8987227    1.3889581      1024000 
  569000   0.92598916   -4.8995377   -4.8995377   -3.5105567  0.029487284   -4.8995377     1.388981      1024000 
  570000   0.92646756   -4.8957598   -4.8957598   -3.5060613  0.040305581   -4.8957598    1.3896986      1024000 
  571000   0.92557892   -4.8967329   -4.8967329   -3.5083673  0.033810683   -4.8967329    1.3883656      1024000 
  572000   0.92509273   -4.8964117   -4.8964117   -3.5087754  0.031638867   -4.8964117    1.3876363      1024000 
  573000   0.92423454   -4.8914417   -4.8914417   -3.5050927  0.034412763   -4.8914417     1.386349      1024000 
  574000   0.92605999   -4.8922697   -4.8922697   -3.5031825  0.032373586   -4.8922697    1.3890872      1024000 
  575000   0.92621604    -4.891166    -4.891166   -3.5018447  0.025909631    -4.891166    1.3893213      1024000 
  576000   0.92244134   -4.8889767   -4.8889767   -3.5053175  0.019481956   -4.8889767    1.3836592      1024000 
  577000   0.92429892   -4.8825023   -4.8825023   -3.4960567  0.024952389   -4.8825023    1.3864456      1024000 
  578000    0.9261667   -4.8822179   -4.8822179   -3.4929706  0.017223978   -4.8822179    1.3892473      1024000 
  579000    0.9247839   -4.8764426   -4.8764426   -3.4892696   0.01859584   -4.8764426    1.3871731      1024000 
  580000   0.92572355   -4.8723464   -4.8723464   -3.4837638  0.017798513   -4.8723464    1.3885825      1024000 
  581000   0.92467489   -4.8705841   -4.8705841   -3.4835745 0.0060895805   -4.8705841    1.3870096      1024000 
  582000   0.92630248   -4.8670521   -4.8670521   -3.4776012 0.0045328078   -4.8670521    1.3894509      1024000 
  583000   0.92398381   -4.8607308   -4.8607308   -3.4747579  0.012061165   -4.8607308    1.3859729      1024000 
  584000     0.925784   -4.8582643   -4.8582643   -3.4695911 0.0099112747   -4.8582643    1.3886732      1024000 
  585000   0.92262862   -4.8578279   -4.8578279   -3.4738877 -0.00046541119   -4.8578279    1.3839402      1024000 
  586000   0.92461125   -4.8588894   -4.8588894   -3.4719753 -0.0066749779   -4.8588894    1.3869141      1024000 
  587000    0.9231295   -4.8525115   -4.8525115     -3.46782 0.0056624836   -4.8525115    1.3846915      1024000 
  588000   0.92534933   -4.8524468   -4.8524468   -3.4644256 -0.00084041785   -4.8524468    1.3880212      1024000 
  589000   0.92352122   -4.8537973   -4.8537973   -3.4685182 -0.0049069478   -4.8537973    1.3852791      1024000 
  590000   0.92118463   -4.8514795   -4.8514795   -3.4697053 -0.006574445   -4.8514795    1.3817742      1024000 
  591000   0.92429573    -4.851058    -4.851058   -3.4646172 -0.0075175308    -4.851058    1.3864408      1024000 
  592000   0.92246091   -4.8480933   -4.8480933   -3.4644047 -0.0082711135   -4.8480933    1.3836886      1024000 
  593000   0.92192699   -4.8453007   -4.8453007    -3.462413 -0.0095055956   -4.8453007    1.3828877      1024000 
  594000   0.92294441   -4.8435834   -4.8435834   -3.4591695 -0.010263737   -4.8435834    1.3844138      1024000 
  595000   0.92358127   -4.8413957   -4.8413957   -3.4560266 -0.0099504263   -4.8413957    1.3853691      1024000 
  596000    0.9236342   -4.8420518   -4.8420518   -3.4566033 -0.012342296   -4.8420518    1.3854485      1024000 
  597000   0.92329217   -4.8414991   -4.8414991   -3.4565636 -0.012276853   -4.8414991    1.3849355      1024000 
  598000   0.92228985   -4.8413018   -4.8413018   -3.4578698  -0.01056444   -4.8413018     1.383432      1024000 
  599000    0.9229609   -4.8445184   -4.8445184   -3.4600798 -0.016634091   -4.8445184    1.3844386      1024000 
  600000   0.92168675   -4.8453035   -4.8453035   -3.4627762 -0.011674195   -4.8453035    1.3825274      1024000 
  601000   0.92228997   -4.8455593   -4.8455593   -3.4621271 -0.0043203658   -4.8455593    1.3834322      1024000 
  602000   0.92392503   -4.8509618   -4.8509618    -3.465077 -0.0097934347   -4.8509618    1.3858848      1024000 
  603000   0.92103432   -4.8545823   -4.8545823   -3.4730336 -0.0093697029   -4.8545823    1.3815487      1024000 
  604000   0.92087451   -4.8542975   -4.8542975   -3.4729885 -0.0021757531   -4.8542975     1.381309      1024000 
  605000   0.92154499   -4.8574899   -4.8574899   -3.4751752 -0.0028880259   -4.8574899    1.3823147      1024000 
  606000   0.92116449   -4.8604421   -4.8604421   -3.4786982  0.001702662   -4.8604421     1.381744      1024000 
  607000    0.9215002    -4.864858    -4.864858   -3.4826104 -0.0063677733    -4.864858    1.3822475      1024000 
  608000   0.92039262    -4.865048    -4.865048   -3.4844619 0.0028972318    -4.865048    1.3805862      1024000 
  609000   0.92097297   -4.8688976   -4.8688976   -3.4874409 0.0048988111   -4.8688976    1.3814567      1024000 
  610000   0.92125357   -4.8719678   -4.8719678   -3.4900902 0.0067661827   -4.8719678    1.3818776      1024000 
  611000   0.92123143   -4.8755443   -4.8755443   -3.4936999 0.0021057067   -4.8755443    1.3818444      1024000 
  612000   0.91961221   -4.8765653   -4.8765653   -3.4971498 0.0064194136   -4.8765653    1.3794155      1024000 
  613000   0.91984116   -4.8786502   -4.8786502   -3.4988912  0.011305202   -4.8786502     1.379759      1024000 
  614000   0.92109157   -4.8877312   -4.8877312   -3.5060967 0.0063798767   -4.8877312    1.3816346      1024000 
  615000   0.92098632   -4.8917464   -4.8917464   -3.5102697  0.018964168   -4.8917464    1.3814767      1024000 
  616000   0.91972634   -4.8957769   -4.8957769   -3.5161901  0.018039783   -4.8957769    1.3795868      1024000 
  617000   0.92024289   -4.9004547   -4.9004547   -3.5200931  0.022443617   -4.9004547    1.3803616      1024000 
  618000   0.91927861   -4.9070407   -4.9070407   -3.5281255  0.020776146   -4.9070407    1.3789151      1024000 
  619000   0.91988592   -4.9110735   -4.9110735   -3.5312474  0.021566563   -4.9110735    1.3798261      1024000 
  620000   0.91771337   -4.9134335   -4.9134335   -3.5368662  0.026857548   -4.9134335    1.3765673      1024000 
  621000   0.91762955   -4.9150172   -4.9150172   -3.5385757  0.030128341   -4.9150172    1.3764416      1024000 
  622000   0.92104108   -4.9165931   -4.9165931   -3.5350342  0.031958279   -4.9165931    1.3815589      1024000 
  623000   0.91920784    -4.920239    -4.920239     -3.54143  0.026966619    -4.920239     1.378809      1024000 
  624000   0.91967034   -4.9227087   -4.9227087   -3.5432059  0.028753099   -4.9227087    1.3795027      1024000 
  625000   0.91768364   -4.9243974   -4.9243974   -3.5478747  0.030778756   -4.9243974    1.3765227      1024000 
  626000   0.91701481   -4.9254266   -4.9254266   -3.5499071  0.031020331   -4.9254266    1.3755195      1024000 
  627000   0.91757826   -4.9265181   -4.9265181   -3.5501535  0.032839773   -4.9265181    1.3763646      1024000 
  628000   0.91709283   -4.9272795   -4.9272795    -3.551643  0.029711474   -4.9272795    1.3756365      1024000 
  629000   0.91702249   -4.9279635   -4.9279635   -3.5524326  0.031558918   -4.9279635     1.375531      1024000 
  630000   0.91826809   -4.9283729   -4.9283729   -3.5509736  0.033809711   -4.9283729    1.3773994      1024000 
  631000   0.91794046   -4.9302871   -4.9302871   -3.5533792  0.035894005   -4.9302871    1.3769079      1024000 
  632000    0.9190786   -4.9285291   -4.9285291   -3.5499139  0.040240214   -4.9285291    1.3786151      1024000 
  633000   0.91678078   -4.9282002   -4.9282002   -3.5530318  0.041705565   -4.9282002    1.3751684      1024000 
  634000    0.9170178    -4.929564    -4.929564   -3.5540401  0.038151951    -4.929564    1.3755239      1024000 
  635000   0.91683628   -4.9291823   -4.9291823   -3.5539307  0.034670879   -4.9291823    1.3752517      1024000 
  636000   0.91756608   -4.9271176   -4.9271176   -3.5507712  0.034853772   -4.9271176    1.3763464      1024000 
  637000   0.91587383   -4.9274753   -4.9274753   -3.5536673  0.024228674   -4.9274753     1.373808      1024000 
  638000   0.91791771   -4.9235591   -4.9235591   -3.5466853  0.026709661   -4.9235591    1.3768738      1024000 
  639000    0.9159405   -4.9198671   -4.9198671   -3.5459591  0.028191982   -4.9198671     1.373908      1024000 
  640000     0.915991   -4.9187041   -4.9187041   -3.5447203   0.02561666   -4.9187041    1.3739837      1024000 
  641000   0.91795708   -4.9183385   -4.9183385   -3.5414056  0.022173745   -4.9183385    1.3769329      1024000 
  642000   0.91544557    -4.915802    -4.915802   -3.5426364  0.018273531    -4.915802    1.3731656      1024000 
  643000   0.91476209   -4.9125524   -4.9125524    -3.540412  0.014748957   -4.9125524    1.3721404      1024000 
  644000   0.91502426   -4.9071104   -4.9071104   -3.5345767  0.019915415   -4.9071104    1.3725336      1024000 
  645000   0.91631124   -4.9077102   -4.9077102   -3.5332461 0.0096631706   -4.9077102    1.3744641      1024000 
  646000   0.91687288   -4.9051295   -4.9051295   -3.5298229 0.0063095375   -4.9051295    1.3753066      1024000 
  647000   0.91672592   -4.9028605   -4.9028605   -3.5277744 0.0041579428   -4.9028605    1.3750861      1024000 
  648000   0.91681955   -4.8984841   -4.8984841   -3.5232576 0.0089340499   -4.8984841    1.3752266      1024000 
  649000   0.91506528   -4.8940867   -4.8940867   -3.5214915  0.010752938   -4.8940867    1.3725952      1024000 
  650000   0.91675504    -4.892796    -4.892796   -3.5176662 0.0065511489    -4.892796    1.3751298      1024000 
  651000   0.91558863   -4.8942342   -4.8942342    -3.520854 -0.0012142354   -4.8942342    1.3733802      1024000 
  652000   0.91592158   -4.8914612   -4.8914612   -3.5175816 -0.00021915684   -4.8914612    1.3738796      1024000 
  653000    0.9144647   -4.8894619   -4.8894619   -3.5177676 -0.0067924461   -4.8894619    1.3716943      1024000 
  654000   0.91589525    -4.887109    -4.887109   -3.5132688 -0.0041812946    -4.887109    1.3738401      1024000 
  655000   0.91352045   -4.8876266   -4.8876266   -3.5173487 -0.013444758   -4.8876266    1.3702779      1024000 
  656000   0.91499875   -4.8848808   -4.8848808   -3.5123855 -0.0047193886   -4.8848808    1.3724954      1024000 
  657000   0.91542942   -4.8862251   -4.8862251   -3.5130837 -0.0049764052   -4.8862251    1.3731414      1024000 
  658000   0.91297896   -4.8855773   -4.8855773   -3.5161116 -0.011298797   -4.8855773    1.3694657      1024000 
[...]
  837000   0.89252663   -4.9959977   -4.9959977   -3.6572104 -0.0072200548   -4.9959977    1.3387873      1024000 
  838000    0.8918703   -4.9934384   -4.9934384   -3.6556356 -0.0036557456   -4.9934384    1.3378028      1024000 
  839000   0.89086854   -4.9937192   -4.9937192   -3.6574191 -0.0054985328   -4.9937192    1.3363001      1024000 
  840000    0.8895006   -4.9957277   -4.9957277   -3.6614795 -0.0071849648   -4.9957277    1.3342482      1024000 
  841000   0.88973587   -4.9962394   -4.9962394   -3.6616383 -0.0095082015   -4.9962394    1.3346011      1024000 
  842000   0.89122507   -4.9978513   -4.9978513   -3.6610164 -0.010359574   -4.9978513    1.3368349      1024000 
  843000   0.89175793   -4.9961027   -4.9961027   -3.6584685 -0.0021550242   -4.9961027    1.3376342      1024000 
  844000   0.89077566   -4.9974922   -4.9974922   -3.6613314 -0.0055548377   -4.9974922    1.3361608      1024000 
  845000   0.88964106   -4.9992497   -4.9992497   -3.6647908 0.0005870374   -4.9992497    1.3344589      1024000 
  846000   0.88946197   -5.0010599   -5.0010599   -3.6668696 -0.0028497611   -5.0010599    1.3341903      1024000 
  847000   0.88951566   -5.0032945   -5.0032945   -3.6690237 0.0020075945   -5.0032945    1.3342708      1024000 
  848000   0.88900529   -5.0058542   -5.0058542    -3.672349 -3.9488367e-05   -5.0058542    1.3335053      1024000 
  849000   0.88926753   -5.0096784   -5.0096784   -3.6757798 -0.0071164622   -5.0096784    1.3338986      1024000 
  850000   0.88965186   -5.0075917   -5.0075917   -3.6731165 0.0046678042   -5.0075917    1.3344751      1024000 
  851000   0.89002061   -5.0079413   -5.0079413    -3.672913 -0.00068434325   -5.0079413    1.3350282      1024000 
  852000   0.88968245   -5.0120754   -5.0120754   -3.6775544 -0.0063089205   -5.0120754     1.334521      1024000 
  853000   0.88976813   -5.0130442   -5.0130442   -3.6783946 0.0088193349   -5.0130442    1.3346495      1024000 
  854000    0.8881985   -5.0159342   -5.0159342   -3.6836391 0.0071698914   -5.0159342    1.3322951      1024000 
  855000   0.88979117   -5.0183429   -5.0183429   -3.6836589   0.00603981   -5.0183429    1.3346841      1024000 
  856000   0.89046403   -5.0222883   -5.0222883   -3.6865949 0.0063255502   -5.0222883    1.3356934      1024000 
  857000   0.88925587   -5.0266945   -5.0266945   -3.6928134 0.0099100391   -5.0266945    1.3338811      1024000 
  858000   0.88872688   -5.0281657   -5.0281657    -3.695078  0.015414326   -5.0281657    1.3330876      1024000 
  859000   0.88832006   -5.0311698   -5.0311698   -3.6986924  0.020247145   -5.0311698    1.3324774      1024000 
  860000   0.88795821   -5.0331187   -5.0331187   -3.7011841  0.023916052   -5.0331187    1.3319346      1024000 
  861000   0.88926378    -5.039471    -5.039471    -3.705578  0.019140136    -5.039471     1.333893      1024000 
  862000   0.88771479    -5.040849    -5.040849   -3.7092795  0.016386302    -5.040849    1.3315695      1024000 
  863000   0.88731431   -5.0432834   -5.0432834   -3.7123146  0.016839713   -5.0432834    1.3309688      1024000 
  864000   0.88590317   -5.0440318   -5.0440318   -3.7151797  0.016040329   -5.0440318    1.3288521      1024000 
  865000    0.8885641   -5.0422366   -5.0422366   -3.7093931  0.020741046   -5.0422366    1.3328435      1024000 
  866000   0.88762613   -5.0418531   -5.0418531   -3.7104166  0.023828363   -5.0418531    1.3314365      1024000 
  867000   0.88787594   -5.0435132   -5.0435132    -3.711702  0.023932524   -5.0435132    1.3318112      1024000 
  868000   0.88554812   -5.0464943   -5.0464943   -3.7181748  0.019575497   -5.0464943    1.3283195      1024000 
  869000   0.88807571   -5.0469313   -5.0469313   -3.7148204   0.02514246   -5.0469313    1.3321109      1024000 
  870000   0.88700475   -5.0500625   -5.0500625    -3.719558  0.022269026   -5.0500625    1.3305045      1024000 
  871000   0.88836974   -5.0519755   -5.0519755   -3.7194235  0.025862501   -5.0519755    1.3325519      1024000 
  872000   0.88666243    -5.052215    -5.052215    -3.722224  0.024467396    -5.052215     1.329991      1024000 
  873000   0.88732692   -5.0566619   -5.0566619   -3.7256742  0.013564251   -5.0566619    1.3309877      1024000 
  874000   0.88712434   -5.0545576   -5.0545576   -3.7238738  0.023770639   -5.0545576    1.3306838      1024000 
  875000   0.88573842   -5.0532048   -5.0532048   -3.7245998  0.025646356   -5.0532048     1.328605      1024000 
  876000   0.88714031   -5.0523915   -5.0523915   -3.7216837  0.023095038   -5.0523915    1.3307078      1024000 
  877000   0.88510153   -5.0497694   -5.0497694   -3.7221197   0.02258983   -5.0497694    1.3276496      1024000 
  878000   0.88430904   -5.0496808   -5.0496808   -3.7232199  0.015120887   -5.0496808    1.3264609      1024000 
  879000   0.88626666   -5.0461853   -5.0461853   -3.7167879  0.019511289   -5.0461853    1.3293973      1024000 
  880000   0.88666348    -5.046662    -5.046662   -3.7166694  0.010666192    -5.046662    1.3299926      1024000 
  881000   0.88663247   -5.0444302   -5.0444302   -3.7144841  0.015124476   -5.0444302     1.329946      1024000 
  882000   0.88347232   -5.0440189   -5.0440189    -3.718813  0.011382589   -5.0440189    1.3252058      1024000 
  883000     0.886165   -5.0459875   -5.0459875   -3.7167427 0.0063443372   -5.0459875    1.3292448      1024000 
  884000   0.88360066   -5.0427803   -5.0427803    -3.717382  0.012201305   -5.0427803    1.3253983      1024000 
  885000   0.88419107   -5.0427659   -5.0427659    -3.716482  0.010362257   -5.0427659    1.3262839      1024000 
  886000   0.88410278   -5.0433559   -5.0433559   -3.7172044 0.0066907142   -5.0433559    1.3261515      1024000 
  887000   0.88596093   -5.0403145   -5.0403145   -3.7113757  0.011703228   -5.0403145    1.3289387      1024000 
  888000   0.88695968   -5.0392957   -5.0392957   -3.7088588   0.01408183   -5.0392957    1.3304369      1024000 
  889000    0.8842253   -5.0376082   -5.0376082   -3.7112729  0.011567227   -5.0376082    1.3263353      1024000 
  890000   0.88462568   -5.0377518   -5.0377518   -3.7108159 0.0041346849   -5.0377518    1.3269359      1024000 
  891000   0.88343972    -5.036751    -5.036751    -3.711594 0.0014014386    -5.036751    1.3251569      1024000 
  892000   0.88269493   -5.0346754   -5.0346754   -3.7106357 -0.0023137138   -5.0346754    1.3240397      1024000 
  893000   0.88295245   -5.0343657   -5.0343657   -3.7099397 -0.0012283038   -5.0343657     1.324426      1024000 
  894000    0.8845147   -5.0327069   -5.0327069   -3.7059376 0.0016337586   -5.0327069    1.3267694      1024000 
  895000   0.88403979   -5.0325082   -5.0325082   -3.7064512 0.00024178912   -5.0325082     1.326057      1024000 
  896000   0.88372072   -5.0310909   -5.0310909   -3.7055124 0.0014388498   -5.0310909    1.3255784      1024000 
  897000   0.88465644   -5.0336722   -5.0336722   -3.7066902 -0.0052693153   -5.0336722     1.326982      1024000 
  898000   0.88356662   -5.0343921   -5.0343921   -3.7090448 -0.0016003669   -5.0343921    1.3253473      1024000 
  899000   0.88285582   -5.0360894   -5.0360894   -3.7118083 -0.0012685716   -5.0360894    1.3242811      1024000 
  900000   0.88178915   -5.0353138   -5.0353138   -3.7126327 -0.0020888461   -5.0353138    1.3226811      1024000 
  901000   0.88201282   -5.0355322   -5.0355322   -3.7125156 -0.0055644465   -5.0355322    1.3230166      1024000 
  902000   0.88233878   -5.0344674   -5.0344674   -3.7109619 -0.0068948311   -5.0344674    1.3235055      1024000 
  903000   0.88154547    -5.033461    -5.033461   -3.7111455 -0.0016642448    -5.033461    1.3223155      1024000 
  904000    0.8824928   -5.0329346   -5.0329346   -3.7091981 0.0018163703   -5.0329346    1.3237365      1024000 
  905000   0.88274242   -5.0374928   -5.0374928   -3.7133818 -0.0086868686   -5.0374928     1.324111      1024000 
  906000   0.88076593   -5.0365102   -5.0365102    -3.715364 -0.0074934659   -5.0365102    1.3211463      1024000 
  907000   0.88206003     -5.04134     -5.04134   -3.7182527 -0.010336002     -5.04134    1.3230874      1024000 
  908000   0.88095934   -5.0413081   -5.0413081   -3.7198717 0.0018385061   -5.0413081    1.3214364      1024000 
  909000    0.8815863   -5.0442167   -5.0442167   -3.7218399 0.0025996457   -5.0442167    1.3223768      1024000 
  910000   0.88219605   -5.0469457   -5.0469457   -3.7236543 0.0041108316   -5.0469457    1.3232914      1024000 
  911000   0.88098747   -5.0485132   -5.0485132   -3.7270346  0.004448864   -5.0485132    1.3214786      1024000 
  912000   0.88004724   -5.0505578   -5.0505578   -3.7304896 0.0092775561   -5.0505578    1.3200682      1024000 
  913000   0.88032641    -5.052596    -5.052596   -3.7321091  0.010752094    -5.052596     1.320487      1024000 
  914000   0.88171329   -5.0562421   -5.0562421   -3.7336748 0.0077255672   -5.0562421    1.3225673      1024000 
  915000   0.88184796   -5.0556501   -5.0556501   -3.7328808  0.021104281   -5.0556501    1.3227693      1024000 
  916000   0.88104908   -5.0595254   -5.0595254   -3.7379544  0.016899165   -5.0595254     1.321571      1024000 
  917000   0.88144703   -5.0614957   -5.0614957   -3.7393278  0.017215642   -5.0614957    1.3221679      1024000 
  918000    0.8808803   -5.0630592   -5.0630592   -3.7417414 0.0095167491   -5.0630592    1.3213178      1024000 
  919000    0.8800943   -5.0667455   -5.0667455   -3.7466067  0.014044939   -5.0667455    1.3201388      1024000 
  920000    0.8779733   -5.0676871   -5.0676871   -3.7507298  0.019087486   -5.0676871    1.3169573      1024000 
  921000   0.88158562   -5.0683961   -5.0683961   -3.7460203  0.023121741   -5.0683961    1.3223758      1024000 
  922000    0.8804054   -5.0719791   -5.0719791   -3.7513737   0.02203465   -5.0719791    1.3206054      1024000 
  923000   0.88150449   -5.0733912   -5.0733912   -3.7511371  0.026496319   -5.0733912    1.3222541      1024000 
  924000   0.88051916   -5.0768977   -5.0768977   -3.7561216  0.021005895   -5.0768977    1.3207761      1024000 
  925000   0.87832476   -5.0805534   -5.0805534   -3.7630689  0.017654809   -5.0805534    1.3174845      1024000 
  926000   0.87927777   -5.0800075   -5.0800075   -3.7610935  0.016387205   -5.0800075     1.318914      1024000 
  927000   0.87780602   -5.0802748   -5.0802748   -3.7635684  0.020548667   -5.0802748    1.3167064      1024000 
  928000   0.87990236   -5.0790744   -5.0790744   -3.7592235  0.025001235   -5.0790744    1.3198509      1024000 
  929000   0.87950995   -5.0801057   -5.0801057   -3.7608435  0.022836531   -5.0801057    1.3192623      1024000 
  930000   0.87953764   -5.0796494   -5.0796494   -3.7603456  0.024932485   -5.0796494    1.3193038      1024000 
  931000   0.88033826   -5.0789197   -5.0789197   -3.7584149   0.02440616   -5.0789197    1.3205047      1024000 
  932000   0.87779993   -5.0801669   -5.0801669   -3.7634696  0.019868162   -5.0801669    1.3166973      1024000 
  933000   0.87781805   -5.0795046   -5.0795046   -3.7627802  0.016683863   -5.0795046    1.3167244      1024000 
  934000   0.87876102   -5.0801682   -5.0801682   -3.7620293  0.014796799   -5.0801682    1.3181389      1024000 
  935000   0.87861549   -5.0797244   -5.0797244   -3.7618038  0.016791319   -5.0797244    1.3179206      1024000 
  936000   0.87737057   -5.0776164   -5.0776164   -3.7615632  0.021809343   -5.0776164    1.3160532      1024000 
  937000   0.87754747   -5.0791153   -5.0791153   -3.7627967  0.015639952   -5.0791153    1.3163186      1024000 
  938000   0.87741271   -5.0783002   -5.0783002   -3.7621838   0.01481831   -5.0783002    1.3161164      1024000 
  939000   0.87809577   -5.0771516   -5.0771516   -3.7600106  0.012386751   -5.0771516     1.317141      1024000 
  940000   0.87736008   -5.0748154   -5.0748154    -3.758778 0.0099238291   -5.0748154    1.3160375      1024000 
  941000   0.87620857   -5.0718654   -5.0718654   -3.7575552  0.010309968   -5.0718654    1.3143102      1024000 
  942000   0.87626326   -5.0723014   -5.0723014   -3.7579092 0.0085959549   -5.0723014    1.3143923      1024000 
  943000   0.87749331   -5.0730936   -5.0730936   -3.7568562 0.0006841354   -5.0730936    1.3162373      1024000 
  944000   0.87998961   -5.0703642   -5.0703642   -3.7503825 0.0035510841   -5.0703642    1.3199818      1024000 
  945000   0.87796103   -5.0695651   -5.0695651   -3.7526262 0.0012289678   -5.0695651    1.3169389      1024000 
  946000   0.87622261   -5.0651204   -5.0651204   -3.7507891 0.0071304582   -5.0651204    1.3143313      1024000 
  947000   0.87676076   -5.0657676   -5.0657676   -3.7506291 0.0043390361   -5.0657676    1.3151385      1024000 
  948000   0.87764275   -5.0640624   -5.0640624   -3.7476009  0.005581239   -5.0640624    1.3164615      1024000 
  949000    0.8771828   -5.0629091   -5.0629091   -3.7471376 0.0060879747   -5.0629091    1.3157716      1024000 
  950000   0.87484643   -5.0628622   -5.0628622   -3.7505951 0.0040214337   -5.0628622     1.312267      1024000 
  951000   0.87701952   -5.0645051   -5.0645051   -3.7489784 0.00082220503   -5.0645051    1.3155266      1024000 
  952000   0.87579281   -5.0622462   -5.0622462   -3.7485596 0.0016290446   -5.0622462    1.3136866      1024000 
  953000   0.87435809   -5.0634691   -5.0634691   -3.7519346 -0.0052911521   -5.0634691    1.3115345      1024000 
  954000   0.87578196   -5.0642236   -5.0642236   -3.7505532 -0.0063062276   -5.0642236    1.3136703      1024000 
  955000   0.87275856   -5.0602034   -5.0602034   -3.7510682 0.0011263439   -5.0602034    1.3091352      1024000 
  956000   0.87588831   -5.0599543   -5.0599543   -3.7461245 0.0050581023   -5.0599543    1.3138298      1024000 
  957000   0.87704475    -5.067817    -5.067817   -3.7522525 -0.012832071    -5.067817    1.3155645      1024000 
  958000   0.87634734   -5.0653355   -5.0653355   -3.7508171 -0.0053091822   -5.0653355    1.3145184      1024000 
  959000   0.87405745   -5.0641776   -5.0641776    -3.753094 -0.001246148   -5.0641776    1.3110835      1024000 
  960000    0.8759835   -5.0663222   -5.0663222   -3.7523495 -0.0038071119   -5.0663222    1.3139726      1024000 
  961000   0.87559049   -5.0669164   -5.0669164   -3.7535333 -0.0048834607   -5.0669164    1.3133831      1024000 
  962000   0.87646569   -5.0694561   -5.0694561   -3.7547603 -0.0020523817   -5.0694561    1.3146959      1024000 
  963000   0.87501577   -5.0723701   -5.0723701    -3.759849 -0.0070065832   -5.0723701     1.312521      1024000 
  964000   0.87507861   -5.0752434   -5.0752434   -3.7626282 -0.0020917636   -5.0752434    1.3126153      1024000 
  965000   0.87436959   -5.0764729   -5.0764729   -3.7649212 0.0019336551   -5.0764729    1.3115518      1024000 
  966000   0.87487898   -5.0790597   -5.0790597   -3.7667438 0.0013201834   -5.0790597    1.3123158      1024000 
  967000   0.87317253   -5.0804149   -5.0804149   -3.7706587 0.0092844908   -5.0804149    1.3097562      1024000 
  968000   0.87366848   -5.0841188   -5.0841188   -3.7736187 0.0039583697   -5.0841188    1.3105001      1024000 
  969000   0.87422572   -5.0859842   -5.0859842   -3.7746483 0.0090904312   -5.0859842    1.3113359      1024000 
  970000   0.87402551    -5.085276    -5.085276   -3.7742403  0.014022846    -5.085276    1.3110356      1024000 
  971000   0.87310221   -5.0855731   -5.0855731   -3.7759224  0.013384717   -5.0855731    1.3096507      1024000 
  972000   0.87250381   -5.0886004   -5.0886004   -3.7798473  0.011758259   -5.0886004    1.3087531      1024000 
  973000   0.87287137    -5.092162    -5.092162   -3.7828575  0.013107663    -5.092162    1.3093044      1024000 
  974000   0.87329236   -5.0961552   -5.0961552   -3.7862193  0.011780976   -5.0961552    1.3099359      1024000 
  975000   0.87420993   -5.0967891   -5.0967891   -3.7854768  0.018250382   -5.0967891    1.3113123      1024000 
  976000   0.87391752   -5.1003248   -5.1003248   -3.7894512  0.016192088   -5.1003248    1.3108737      1024000 
  977000   0.87442844   -5.1035707   -5.1035707   -3.7919307  0.016809284   -5.1035707      1.31164      1024000 
  978000    0.8727339   -5.1040643   -5.1040643   -3.7949661  0.021096736   -5.1040643    1.3090982      1024000 
  979000    0.8702118   -5.1076353   -5.1076353   -3.8023202  0.021231187   -5.1076353    1.3053151      1024000 
  980000   0.87398959   -5.1104804   -5.1104804   -3.7994987  0.026144997   -5.1104804    1.3109818      1024000 
  981000   0.87157139   -5.1125386   -5.1125386   -3.8051842  0.019765283   -5.1125386    1.3073545      1024000 
  982000   0.87180328   -5.1072974   -5.1072974   -3.7995951  0.028670334   -5.1072974    1.3077023      1024000 
  983000   0.87397258   -5.1117539   -5.1117539   -3.8007976  0.019744091   -5.1117539    1.3109562      1024000 
  984000   0.87253155   -5.1081315   -5.1081315   -3.7993368    0.0256997   -5.1081315    1.3087947      1024000 
  985000   0.87283872   -5.1077762   -5.1077762   -3.7985208  0.023325043   -5.1077762    1.3092555      1024000 
  986000   0.87301301    -5.110556    -5.110556   -3.8010391  0.018630964    -5.110556    1.3095169      1024000 
  987000   0.87127955   -5.1102467   -5.1102467     -3.80333  0.015994796   -5.1102467    1.3069167      1024000 
  988000     0.871577   -5.1101089   -5.1101089    -3.802746  0.015590952   -5.1101089    1.3073629      1024000 
  989000   0.87152308   -5.1103254   -5.1103254   -3.8030434  0.016264968   -5.1103254     1.307282      1024000 
  990000   0.87032259   -5.1119425   -5.1119425   -3.8064613  0.012583523   -5.1119425    1.3054813      1024000 
  991000   0.86996554    -5.109496    -5.109496   -3.8045503  0.015907573    -5.109496    1.3049457      1024000 
  992000   0.86938247   -5.1100413   -5.1100413   -3.8059702  0.014430107   -5.1100413    1.3040711      1024000 
  993000   0.87056731   -5.1107892   -5.1107892   -3.8049409  0.013696923   -5.1107892    1.3058483      1024000 
  994000   0.87074011   -5.1104633   -5.1104633   -3.8043558  0.010555245   -5.1104633    1.3061076      1024000 
  995000   0.86967274   -5.1076411   -5.1076411   -3.8031346  0.012085715   -5.1076411    1.3045065      1024000 
  996000   0.87035733   -5.1084183   -5.1084183   -3.8028849 0.0071305487   -5.1084183    1.3055334      1024000 
  997000   0.86978922   -5.1034862   -5.1034862    -3.798805 0.0092448644   -5.1034862    1.3046812      1024000 
  998000   0.86861395   -5.1031933   -5.1031933    -3.800275 0.0024058927   -5.1031933    1.3029183      1024000 
  999000   0.86939161   -5.1023309   -5.1023309   -3.7982461 0.0031931861   -5.1023309    1.3040848      1024000 
 1000000   0.87053219   -5.0981224   -5.0981224   -3.7923267 0.0077160896   -5.0981224    1.3057957      1024000 
Loop time of 180791 on 16 procs for 1000000 steps with 499200 atoms

Performance: 1194.748 tau/day, 5.531 timesteps/s
66.4% CPU use with 16 MPI tasks x 1 OpenMP threads

MPI task timing breakdown:
Section |  min time  |  avg time  |  max time  |%varavg|  %CPU | %total
-----------------------------------------------------------------------
Pair    | 74009      | 96912      | 1.4114e+05 |5838.1 |  85.3 | 53.60
Bond    | 0.62673    | 1.6317     | 2.1047     |  32.3 | 100.0 |  0.00
Neigh   | 8751       | 11038      | 15554      |1721.7 |  90.1 |  6.11
Comm    | 19401      | 68009      | 94956      |7741.7 |  35.3 | 37.62
Output  | 24.525     | 24.723     | 25.037     |   4.1 | 100.0 |  0.01
Modify  | 2393.8     | 4127.5     | 5929.2     |1912.3 |  34.1 |  2.28
Other   |            | 679.2      |            |       |       |  0.38

Nlocal:    31200 ave 32461 max 28499 min
Histogram: 4 0 0 0 0 0 0 1 5 6
Nghost:    30177.4 ave 35063 max 24391 min
Histogram: 4 4 0 0 0 0 0 0 0 8
Neighs:    5.27273e+06 ave 5.58914e+06 max 4.4072e+06 min
Histogram: 4 0 0 0 0 0 0 0 0 12

Total # of neighbors = 84363674
Ave neighs/atom = 168.998
Ave special neighs/atom = 0
Neighbor list builds = 64398
Dangerous builds = 54
Total wall time: 50:13:12
