LAMMPS (24 Dec 2020)
OMP_NUM_THREADS environment is not set. Defaulting to 1 thread. (src/comm.cpp:94)
  using 1 OpenMP thread(s) per MPI task
#Read the equilibrated lj fluid and add nanocubes

units           lj
atom_style      full
#atom_modify     map array first cubes
dimension       3
boundary        p p f
pair_style      lj/cut/opt 2.5

variable        sigma           equal 1.0
variable        epsilon         equal 1.0
read_restart	restart.dat.4000000
Reading restart file ...
  restart file = 24 Dec 2020, LAMMPS = 24 Dec 2020
WARNING: Restart file used different # of processors: 96 vs. 288 (src/read_restart.cpp:697)
  restoring atom style full from restart
  orthogonal box = (0.0000000 0.0000000 0.0000000) to (60.000000 60.000000 180.00000)
  4 by 4 by 18 MPI processor grid
  restoring pair style lj/cut/opt from restart
  313401 atoms
Finding 1-2 1-3 1-4 neighbors ...
  special bond factors lj:    0        0        0       
  special bond factors coul:  0        0        0       
     0 = max # of 1-2 neighbors
     0 = max # of 1-3 neighbors
     0 = max # of 1-4 neighbors
     1 = max # of special neighbors
  special bonds CPU = 2.328 seconds
  read_restart CPU = 2.625 seconds

group		solvent type 1
241392 atoms in group solvent
group 		hull  type 2
28098 atoms in group hull
group 		dummy type 3
43911 atoms in group dummy

neighbor      0.4 bin
neigh_modify  exclude molecule/intra cubes


pair_modify   shift yes

pair_coeff    1 1 1.0 1.0 #solvent
pair_coeff    2 2 1.0 1.0 1.12 #np
pair_coeff    3 3 0.0 0.0 0.0 #dummy
pair_coeff    2 3 0.0 0.0 0.0 #np dummy
pair_coeff    1 2 ${sol} 1.0 #np solvent
pair_coeff    1 2 1.0 1.0 
pair_coeff    1 3 0.0 0.0 0.0 #dummy solvent


comm_modify   mode multi cutoff/multi 1 2.5 cutoff/multi 2 2.5 cutoff/multi 3 6.95

reset_timestep 	0

balance 	1.05 shift z 10 1.05
Balancing ...
Unused restart file global fix info:
  fix style: STORE, fix ID: msd_COMPUTE_STORE
Unused restart file peratom fix info:
  fix style: STORE, fix ID: bin1_COMPUTE_STORE
Neighbor list info ...
  update every 1 steps, delay 10 steps, check yes
  max neighbors/atom: 2000, page size: 100000
  master list distance cutoff = 2.9
  ghost atom cutoff = 6.95
  binsize = 1.45, bins = 42 42 125
  1 neighbor lists, perpetual/occasional/extra = 1 0 0
  (1) pair lj/cut/opt, perpetual
      attributes: half, newton on
      pair build: half/bin/newton
      stencil: half/bin/3d/newton
      bin: standard
 rebalancing time: 0.068 seconds
  iteration count = 5
  initial/final maximal load/proc = 1960.0000 1574.0000
  initial/final imbalance factor  = 1.8011429 1.4464281
  x cuts: 0.0000000 0.25000000 0.50000000 0.75000000 1.0000000
  y cuts: 0.0000000 0.25000000 0.50000000 0.75000000 1.0000000
  z cuts: 0.0000000 0.050347222 0.095486111 0.13368056 0.17187500 0.21180556 0.24652778 0.28819444 0.32465278 0.36979167 0.41493056 0.44965278 0.49305556 0.53472222 0.57638889 0.61805556 0.67187500 0.72916667 1.0000000

####################### WALLS ###########################

variable       epsilonWall equal 2*${epsilon}
variable       epsilonWall equal 2*1
variable       repulsive   equal   0.7147*${sigma}
variable       repulsive   equal   0.7147*1
variable       full	   equal   3*${sigma}
variable       full	   equal   3*1
region         lowWall block EDGE EDGE EDGE EDGE EDGE 2

fix            topWall all wall/lj93 zhi EDGE 	       ${epsilonWall} ${sigma} ${repulsive} units box
fix            topWall all wall/lj93 zhi EDGE 	       2 ${sigma} ${repulsive} units box
fix            topWall all wall/lj93 zhi EDGE 	       2 1 ${repulsive} units box
fix            topWall all wall/lj93 zhi EDGE 	       2 1 0.7147 units box
fix            lowSol solvent wall/lj93 zlo EDGE                ${epsilonWall} ${sigma} ${full} units box
fix            lowSol solvent wall/lj93 zlo EDGE                2 ${sigma} ${full} units box
fix            lowSol solvent wall/lj93 zlo EDGE                2 1 ${full} units box
fix            lowSol solvent wall/lj93 zlo EDGE                2 1 3 units box
fix 	       lowCub cubes wall/lj93 zlo EDGE                ${epsilonWall} ${sigma} ${repulsive} units box
fix 	       lowCub cubes wall/lj93 zlo EDGE                2 ${sigma} ${repulsive} units box
fix 	       lowCub cubes wall/lj93 zlo EDGE                2 1 ${repulsive} units box
fix 	       lowCub cubes wall/lj93 zlo EDGE                2 1 0.7147 units box


###################### COMPUTES ##########################

compute        bin1 solvent chunk/atom bin/1d z lower 1.0 units box


######################  FIXES ############################


fix             peclet solvent ave/chunk 10 10 10000 bin1 density/number norm                  none ave one file density.profile

fix              temp solvent ave/chunk 10 10 10000 bin1 temp norm                  none ave one file temp.profile

fix             1 cubes rigid/nve/small molecule #temp ${temp} ${temp} 10
  create bodies CPU = 0.031 seconds
  63 rigid bodies with 72009 atoms
  6.9282032 = max distance from body owner to body atom

fix             2 solvent nve


## Thermostat
region          regthermo block EDGE EDGE EDGE EDGE 0 20
group           thermo dynamic solvent region regthermo every 1000
dynamic group thermo defined
fix             3 thermo langevin ${temp} ${temp} 10 156453
fix             3 thermo langevin 1.0 ${temp} 10 156453
fix             3 thermo langevin 1.0 1.0 10 156453

## Evaporation
region		regevap block EDGE EDGE EDGE EDGE 160 EDGE
fix		4 solvent evaporate ${evap} 1 regevap 156415
fix		4 solvent evaporate 175 1 regevap 156415


#### Load balancing

fix             bal all balance 1000 1.05 shift z 10 1.05

############### Diagnostics and computes ###################

compute        	com cubes          rigid/local   1 mol x y z
compute        	quat cubes         rigid/local   1 mol quatw quati quatj quatk

compute 	cc2 cubes 	   chunk/atom 	 molecule
compute 	msd cubes 	   msd/chunk 	 cc2

fix 		msd all ave/time  1 1 10000 c_msd[*] file dump.msd ave one mode vector

dump            1 all custom 500000 dump.lammpstrj id mol type x y z
dump		cubetrj hull custom 500000 cubes.lammpstrj id mol type x y z
dump            com cubes local 10000 dump.*.xyz c_com[*]
dump	        xyz hull xyz 100000 cubes.xyz
dump            quat cubes      local 10000 dump.*.quat c_quat[*]
#dump		mol cubes molfile 10000 mol.xyz xyz


dump            2 all image 10000 image.*.png type type
dump_modify     2 pad 8
dump		image cubes image 10000 image_cubes.*.png type type
dump_modify	image pad 8
dump            3 all movie 5000 movie.avi type type zoom 2.0
dump		4 cubes movie 5000 movie_cubes.avi type type zoom 2.0 size 1080 1920


thermo          1000
thermo_style    custom step temp epair evdwl etotal press pe ke atoms

restart         1000000 restart1.dat restart2.dat
timestep        0.005
timer           full
New timer settings: style=full  mode=nosync  timeout=off

run 		20000000
Per MPI rank memory allocation (min/avg/max) = 13.25 | 18.20 | 22.34 Mbytes
Step Temp E_pair E_vdwl TotEng Press PotEng KinEng Atoms 
       0    1.0050887    -2.657569    -2.657569   -1.4957379  0.065842925    -2.657569    1.1618311   313401 
    1000    1.0056101   -2.6580407   -2.6580407   -1.4955884  0.051510923   -2.6580407    1.1624523   313396 
    2000    1.0065725   -2.6580897   -2.6580897   -1.4945026    0.0681322   -2.6580897     1.163587   313390 
    3000    1.0042242   -2.6562081   -2.6562081   -1.4953134  0.065430106   -2.6562081    1.1608947   313384 
    4000    1.0027396    -2.654761    -2.654761    -1.495564  0.066748457    -2.654761    1.1591969   313379 
    5000    1.0043694   -2.6562755   -2.6562755   -1.4951722  0.065673635   -2.6562755    1.1611033   313373 
    6000    1.0045355   -2.6562239   -2.6562239   -1.4949063  0.062387481   -2.6562239    1.1613176   313367 
    7000    1.0063847    -2.658761    -2.658761   -1.4952833  0.057394028    -2.658761    1.1634777   313361 
    8000    1.0069181   -2.6579757   -2.6579757   -1.4938629  0.073983251   -2.6579757    1.1641129   313356 
    9000    1.0060323    -2.656731    -2.656731     -1.49362  0.070522828    -2.656731     1.163111   313350 
   10000    1.0033775     -2.65533     -2.65533    -1.495266  0.054024233     -2.65533     1.160064   313344 
   11000    1.0053948    -2.656667    -2.656667   -1.4942522  0.077195639    -2.656667    1.1624148   313339 
   12000    1.0068083   -2.6588793   -2.6588793   -1.4948079  0.063591622   -2.6588793    1.1640714   313333 
   13000    1.0036263   -2.6556099   -2.6556099   -1.4951954  0.059993525   -2.6556099    1.1604145   313327 
   14000    1.0017935   -2.6552124   -2.6552124   -1.4968948  0.061597191   -2.6552124    1.1583176   313321 
   15000     1.001724   -2.6558104   -2.6558104   -1.4975546  0.063040009   -2.6558104    1.1582558   313316 
   16000    1.0045168   -2.6572156   -2.6572156   -1.4957084  0.060022492   -2.6572156    1.1615072   313310 
   17000     1.004631    -2.656206    -2.656206   -1.4945445  0.070113203    -2.656206    1.1616615   313304 
   18000    1.0026673   -2.6559683   -2.6559683    -1.496559   0.07244131   -2.6559683    1.1594093   313299 
   19000    1.0041704   -2.6576263   -2.6576263   -1.4964566   0.05614735   -2.6576263    1.1611697   313293 
   20000    1.0079256   -2.6592433   -2.6592433   -1.4937089  0.063102123   -2.6592433    1.1655344   313287 
   21000      1.00328   -2.6566787   -2.6566787   -1.4964942  0.064757302   -2.6566787    1.1601845   313281 
   22000    1.0024932   -2.6549999   -2.6549999   -1.4957067  0.067778174   -2.6549999    1.1592932   313276 
   23000    1.0024408   -2.6562096   -2.6562096   -1.4969549  0.073127921   -2.6562096    1.1592548   313270 
   24000    1.0019934    -2.656658    -2.656658   -1.4978984  0.062072206    -2.656658    1.1587595   313264 
   25000    1.0043791   -2.6594209   -2.6594209   -1.4978839  0.058300176   -2.6594209     1.161537   313259 
   26000    1.0030382   -2.6571435   -2.6571435   -1.4971349  0.068311658   -2.6571435    1.1600086   313253 
   27000    1.0037493   -2.6574223   -2.6574223   -1.4965691  0.067637397   -2.6574223    1.1608532   313247 
   28000    1.0047583   -2.6582756   -2.6582756   -1.4962332  0.061156393   -2.6582756    1.1620424   313241 
   29000    1.0041774    -2.658634    -2.658634   -1.4972449  0.063588394    -2.658634    1.1613891   313236 
   30000    1.0032541   -2.6573455   -2.6573455    -1.497002  0.071446778   -2.6573455    1.1603435   313230 
   31000    1.0030881    -2.657147    -2.657147   -1.4969733   0.06340458    -2.657147    1.1601737   313224 
   32000    1.0029674   -2.6569476   -2.6569476    -1.496895  0.068246504   -2.6569476    1.1600526   313219 
   33000    1.0047985   -2.6580643   -2.6580643   -1.4958715  0.070023621   -2.6580643    1.1621928   313213 
   34000    1.0046031   -2.6580592   -2.6580592   -1.4960702  0.069141427   -2.6580592     1.161989   313207 
   35000    1.0025495   -2.6553422   -2.6553422   -1.4957063  0.068618325   -2.6553422    1.1596358   313201 
   36000    1.0041771   -2.6571979   -2.6571979   -1.4956608  0.059225055   -2.6571979    1.1615371   313196 
   37000    1.0039698    -2.657249    -2.657249   -1.4959296  0.072090867    -2.657249    1.1613195   313190 
   38000    1.0042116   -2.6578205   -2.6578205    -1.496199  0.067979319   -2.6578205    1.1616215   313184 
   39000    1.0042817   -2.6589244   -2.6589244   -1.4972032  0.061650858   -2.6589244    1.1617211   313179 
   40000    1.0031472   -2.6593608   -2.6593608   -1.4989298  0.058959757   -2.6593608     1.160431   313173 
   41000    1.0052319   -2.6604444   -2.6604444   -1.4975796  0.067439395   -2.6604444    1.1628648   313167 
   42000    1.0030384   -2.6600203   -2.6600203   -1.4996707  0.072035232   -2.6600203    1.1603496   313161 
   43000    1.0036783   -2.6602625   -2.6602625   -1.4991541  0.063665595   -2.6602625    1.1611084   313156 
   44000    1.0038878   -2.6604847   -2.6604847   -1.4991117  0.060763342   -2.6604847     1.161373   313150 
   45000    1.0039826    -2.660051    -2.660051    -1.498546  0.067778753    -2.660051     1.161505   313144 
   46000    1.0032968   -2.6594969   -2.6594969   -1.4987669  0.061551572   -2.6594969    1.1607301   313139 
   47000     1.006076   -2.6630789   -2.6630789   -1.4991113  0.061586957   -2.6630789    1.1639677   313133 
   48000    1.0038657    -2.660169    -2.660169   -1.4987363   0.06143218    -2.660169    1.1614328   313127 
   49000    1.0022177   -2.6587142   -2.6587142    -1.499166  0.079072645   -2.6587142    1.1595482   313121 
   50000    1.0002109   -2.6568176   -2.6568176   -1.4995726  0.062290817   -2.6568176    1.1572449   313116 
   51000    1.0043246   -2.6604992   -2.6604992   -1.4984725  0.058130757   -2.6604992    1.1620268   313110 
   52000    1.0025625   -2.6591325   -2.6591325   -1.4991223  0.075906716   -2.6591325    1.1600102   313104 
   53000     1.005224    -2.661325    -2.661325   -1.4982167  0.070184181    -2.661325    1.1631083   313099 
   54000    1.0055043   -2.6616407   -2.6616407   -1.4981858  0.057344705   -2.6616407    1.1634549   313093 
   55000    1.0041205   -2.6604942   -2.6604942   -1.4986183  0.061541373   -2.6604942    1.1618759   313087 
   56000    1.0053545   -2.6620964   -2.6620964   -1.4987703  0.067309177   -2.6620964    1.1633261   313081 
   57000    1.0053421   -2.6621056   -2.6621056   -1.4987753  0.064365274   -2.6621056    1.1633304   313076 
   58000     1.002437   -2.6604337   -2.6604337   -1.5004427  0.059748031   -2.6604337    1.1599909   313070 
   59000    1.0020323   -2.6597308   -2.6597308   -1.5001859  0.067914129   -2.6597308    1.1595448   313064 
   60000    1.0053616   -2.6625197   -2.6625197   -1.4991036  0.061546796   -2.6625197    1.1634161   313059 
   61000    1.0022455    -2.659476    -2.659476   -1.4996437   0.07097597    -2.659476    1.1598323   313053 
   62000    1.0036658   -2.6618539   -2.6618539   -1.5003557   0.06991349   -2.6618539    1.1614982   313047 
   63000    1.0020628   -2.6595295   -2.6595295   -1.4998642  0.072640085   -2.6595295    1.1596653   313041 
   64000    1.0026884   -2.6609784   -2.6609784   -1.5005705  0.066334252   -2.6609784    1.1604079   313036 
   65000     1.003369   -2.6608927   -2.6608927    -1.499675    0.0617617   -2.6608927    1.1612177   313030 
   66000    1.0027625   -2.6604011   -2.6604011    -1.499863  0.050480918   -2.6604011    1.1605381   313024 
   67000    1.0030828   -2.6603598   -2.6603598   -1.4994324  0.048368605   -2.6603598    1.1609274   313019 
   68000    1.0014697   -2.6593296   -2.6593296   -1.5002469  0.067892346   -2.6593296    1.1590827   313013 
   69000    1.0038308   -2.6606239   -2.6606239   -1.4987863  0.068195853   -2.6606239    1.1618376   313007 
   70000    1.0039682   -2.6601002   -2.6601002   -1.4980813  0.066356327   -2.6601002    1.1620189   313001 
   71000     1.003536   -2.6585484   -2.6585484   -1.4970113  0.064841047   -2.6585484    1.1615372   312996 
   72000    1.0034186    -2.658767    -2.658767   -1.4973435  0.049525844    -2.658767    1.1614236   312990 
   73000    1.0053301   -2.6616373   -2.6616373   -1.4979788   0.07311346   -2.6616373    1.1636584   312984 
   74000    1.0039967   -2.6613153   -2.6613153   -1.4991817  0.053825822   -2.6613153    1.1621336   312979 
   75000    1.0022339   -2.6596448   -2.6596448   -1.4995294  0.066188151   -2.6596448    1.1601154   312973 
   76000    1.0035908   -2.6613509   -2.6613509   -1.4996425  0.066111996   -2.6613509    1.1617083   312967 
   77000    1.0024666    -2.659323    -2.659323   -1.4988937  0.065956159    -2.659323    1.1604293   312961 
   78000    1.0021002   -2.6593124   -2.6593124   -1.4992888  0.076983404   -2.6593124    1.1600236   312956 
   79000    1.0029234   -2.6580708   -2.6580708   -1.4970721  0.059651645   -2.6580708    1.1609988   312950 
   80000    1.0021088    -2.657344    -2.657344   -1.4972659  0.074036741    -2.657344     1.160078   312944 
   81000    1.0020762   -2.6572191   -2.6572191   -1.4971603  0.065670611   -2.6572191    1.1600588   312939 
   82000      1.00299   -2.6581673   -2.6581673   -1.4970284  0.063712371   -2.6581673     1.161139   312933 
   83000    1.0020387   -2.6576217   -2.6576217   -1.4975618  0.065333696   -2.6576217    1.1600599   312927 
   84000    1.0025909   -2.6588809   -2.6588809   -1.4981594  0.065461103   -2.6588809    1.1607215   312921 
   85000    1.0039152   -2.6605083   -2.6605083   -1.4982352  0.070978365   -2.6605083    1.1622732   312916 
   86000     1.004154   -2.6590995   -2.6590995   -1.4965276  0.070841261   -2.6590995    1.1625719   312910 
   87000    1.0025273   -2.6582234   -2.6582234   -1.4975125   0.07410961   -2.6582234    1.1607109   312904 
   88000    1.0037043   -2.6600778   -2.6600778   -1.4979856  0.055002107   -2.6600778    1.1620922   312899 
   89000    1.0037775   -2.6601268   -2.6601268   -1.4979276  0.057434142   -2.6601268    1.1621992   312893 
   90000    1.0016267   -2.6592612   -2.6592612   -1.4995299  0.056546522   -2.6592612    1.1597312   312887 
   91000    1.0012023   -2.6581961   -2.6581961   -1.4989341  0.071640571   -2.6581961     1.159262   312881 
   92000    1.0024793    -2.658897    -2.658897   -1.4981379  0.053650042    -2.658897    1.1607592   312876 
   93000    1.0016397   -2.6587715   -2.6587715   -1.4989622  0.064901334   -2.6587715    1.1598093   312870 
   94000    1.0030869   -2.6590408   -2.6590408   -1.4975336  0.064357006   -2.6590408    1.1615072   312864 
   95000    1.0034864   -2.6593856   -2.6593856   -1.4973971  0.062874303   -2.6593856    1.1619885   312859 
   96000    1.0043728   -2.6613902   -2.6613902    -1.498353  0.058092646   -2.6613902    1.1630372   312853 
   97000    1.0043669   -2.6617126   -2.6617126   -1.4986601  0.060196136   -2.6617126    1.1630526   312847 
   98000    1.0034449   -2.6605624   -2.6605624   -1.4985551  0.059328268   -2.6605624    1.1620072   312841 
   99000    1.0012176   -2.6580892   -2.6580892   -1.4986427  0.058973886   -2.6580892    1.1594465   312836 
  100000    1.0043052   -2.6607742   -2.6607742   -1.4977299  0.064612431   -2.6607742    1.1630443   312830 
  101000    1.0012384   -2.6577437   -2.6577437   -1.4982286  0.062740416   -2.6577437    1.1595151   312824 
  102000    1.0019664   -2.6590132   -2.6590132   -1.4986366  0.062470175   -2.6590132    1.1603767   312819 
  103000    1.0015664   -2.6596698   -2.6596698   -1.4997341  0.061455427   -2.6596698    1.1599357   312813 
  104000     1.002081   -2.6592908   -2.6592908   -1.4987369  0.062689056   -2.6592908     1.160554   312807 
  105000     1.000984   -2.6591714   -2.6591714   -1.4998657  0.060197726   -2.6591714    1.1593057   312801 
  106000    1.0022288   -2.6612975   -2.6612975   -1.5005316  0.062530087   -2.6612975     1.160766   312796 
  107000    1.0019325   -2.6617969   -2.6617969   -1.5013519  0.066087615   -2.6617969     1.160445   312790 
  108000    1.0017943   -2.6600566   -2.6600566   -1.4997494  0.071947537   -2.6600566    1.1603072   312784 
  109000    1.0013692   -2.6581243   -2.6581243    -1.498291  0.067130856   -2.6581243    1.1598334   312779 
  110000    1.0011008   -2.6579675   -2.6579675   -1.4984227  0.059942232   -2.6579675    1.1595447   312773 
  111000    1.0009895   -2.6571801   -2.6571801    -1.497742  0.068364546   -2.6571801     1.159438   312767 
  112000     1.002915   -2.6592961   -2.6592961   -1.4976055  0.071756084   -2.6592961    1.1616906   312761 
  113000    1.0028154   -2.6592548   -2.6592548   -1.4976609  0.071146478   -2.6592548    1.1615939   312756 
  114000    1.0019385   -2.6586217   -2.6586217   -1.4980213  0.057777647   -2.6586217    1.1606004   312750 
  115000    1.0027691   -2.6598784   -2.6598784   -1.4982936  0.053447815   -2.6598784    1.1615848   312744 
  116000    1.0019044   -2.6597097   -2.6597097   -1.4991079  0.067909204   -2.6597097    1.1606017   312739 
  117000    1.0023116   -2.6583197   -2.6583197    -1.497224  0.063376221   -2.6583197    1.1610957   312733 
  118000    1.0023794   -2.6587693   -2.6587693   -1.4975728  0.069540953   -2.6587693    1.1611965   312727 
  119000     1.000723   -2.6566539   -2.6566539    -1.497354   0.06805858   -2.6566539    1.1592999   312721 
  120000     1.001269   -2.6581579   -2.6581579   -1.4982069  0.062660192   -2.6581579     1.159951   312716 
  121000    1.0014045   -2.6591946   -2.6591946   -1.4990645  0.062036985   -2.6591946    1.1601301   312710 
  122000    1.0001818   -2.6589202   -2.6589202   -1.5001842   0.06503459   -2.6589202     1.158736   312704 
  123000    1.0023562   -2.6600066   -2.6600066    -1.498733  0.072133652   -2.6600066    1.1612736   312699 
  124000    1.0024331   -2.6598523   -2.6598523   -1.4984674  0.047112407   -2.6598523    1.1613849   312693 
  125000     1.003574   -2.6602267   -2.6602267   -1.4974976  0.058927941   -2.6602267    1.1627291   312687 
  126000     1.001704   -2.6588131   -2.6588131   -1.4982283  0.069937522   -2.6588131    1.1605848   312681 
  127000    1.0018251   -2.6586264   -2.6586264   -1.4978827  0.064883755   -2.6586264    1.1607437   312676 
  128000    1.0008952    -2.659156    -2.659156   -1.4994674  0.070774469    -2.659156    1.1596886   312670 
  129000    1.0023269   -2.6609563   -2.6609563   -1.4995867  0.064969877   -2.6609563    1.1613696   312664 
  130000    1.0021676   -2.6602196   -2.6602196   -1.4990159  0.056560265   -2.6602196    1.1612037   312659 
  131000    1.0016215   -2.6603324   -2.6603324   -1.4997392  0.064492987   -2.6603324    1.1605932   312653 
  132000   0.99980931   -2.6585828   -2.6585828   -1.5000672  0.060843174   -2.6585828    1.1585156   312647 
  133000   0.99898393   -2.6575317   -2.6575317   -1.4999503   0.05535455   -2.6575317    1.1575814   312641 
  134000   0.99948293   -2.6568767   -2.6568767   -1.4986986  0.067208671   -2.6568767    1.1581781   312636 
  135000   0.99974763   -2.6574174   -2.6574174   -1.4989103  0.062200734   -2.6574174    1.1585071   312630 
  136000    1.0021561   -2.6583314   -2.6583314   -1.4970111  0.067789308   -2.6583314    1.1613204   312624 
  137000    1.0025014   -2.6585076   -2.6585076   -1.4967685  0.072015293   -2.6585076     1.161739   312619 
  138000    1.0028528   -2.6596171   -2.6596171   -1.4974485  0.060098614   -2.6596171    1.1621686   312613 
  139000    1.0030208   -2.6597132   -2.6597132   -1.4973277  0.069967665   -2.6597132    1.1623856   312607 
  140000     1.001817   -2.6572384   -2.6572384   -1.4962256  0.069866787   -2.6572384    1.1610128   312601 
  141000    1.0043545   -2.6592775   -2.6592775   -1.4953053  0.072499244   -2.6592775    1.1639722   312596 
  142000    1.0026158   -2.6599447   -2.6599447   -1.4979652  0.064434341   -2.6599447    1.1619795   312590 
  143000    1.0024887   -2.6593945   -2.6593945   -1.4975401  0.083789377   -2.6593945    1.1618544   312584 
  144000    1.0025594   -2.6593441   -2.6593441   -1.4973891   0.06490949   -2.6593441     1.161955   312579 
  145000    1.0032933   -2.6611332   -2.6611332   -1.4983054  0.068638604   -2.6611332    1.1628279   312573 
  146000    1.0004792   -2.6601772   -2.6601772   -1.5005887  0.056143381   -2.6601772    1.1595885   312567 
  147000    1.0004804   -2.6591228   -2.6591228   -1.4995106  0.058852831   -2.6591228    1.1596122   312561 
  148000    1.0002912   -2.6594032   -2.6594032   -1.4999917  0.053772052   -2.6594032    1.1594115   312556 
  149000    1.0004147   -2.6613383   -2.6613383   -1.5017614  0.058164266   -2.6613383    1.1595768   312550 
  150000   0.99901326   -2.6604656   -2.6604656    -1.502491  0.061666467   -2.6604656    1.1579747   312544 
  151000   0.99855137   -2.6607457   -2.6607457   -1.5032879  0.059096043   -2.6607457    1.1574578   312539 
  152000   0.99937175   -2.6611587   -2.6611587   -1.5027277   0.06245542   -2.6611587     1.158431   312533 
  153000    1.0004756   -2.6621542   -2.6621542   -1.5024214  0.064029338   -2.6621542    1.1597327   312527 
  154000   0.99939259   -2.6619152   -2.6619152   -1.5034156  0.057331634   -2.6619152    1.1584996   312521 
  155000    1.0004947   -2.6620049   -2.6620049   -1.5022091  0.073030894   -2.6620049    1.1597958   312516 
  156000    1.0007709   -2.6637008   -2.6637008   -1.5035626  0.069485746   -2.6637008    1.1601382   312510 
  157000   0.99998561   -2.6612922   -2.6612922   -1.5020421  0.062747826   -2.6612922    1.1592501   312504 
  158000    1.0038033   -2.6647541   -2.6647541   -1.5010597  0.077703521   -2.6647541    1.1636944   312499 
  159000    1.0032872    -2.665087    -2.665087   -1.5019686  0.072793393    -2.665087    1.1631184   312493 
  160000    1.0036231   -2.6656068   -2.6656068   -1.5020766  0.069930552   -2.6656068    1.1635302   312487 
  161000    1.0060401   -2.6681914   -2.6681914   -1.5018368  0.070073645   -2.6681914    1.1663547   312481 
  162000    1.0065623   -2.6666969   -2.6666969   -1.4997182  0.072433105   -2.6666969    1.1669787   312476 
  163000    1.0051887   -2.6685134   -2.6685134   -1.5031048  0.066550471   -2.6685134    1.1654086   312470 
  164000     1.003144   -2.6662734   -2.6662734    -1.503213  0.066734314   -2.6662734    1.1630604   312464 
  165000    1.0040623   -2.6663874   -2.6663874   -1.5022437  0.072991362   -2.6663874    1.1641437   312459 
  166000    1.0036965   -2.6687642   -2.6687642   -1.5050224  0.067174701   -2.6687642    1.1637419   312453 
  167000    1.0034243    -2.669653    -2.669653   -1.5062043  0.065512257    -2.669653    1.1634487   312447 
  168000    1.0014432   -2.6676014   -2.6676014   -1.5064274  0.059864149   -2.6676014    1.1611739   312441 
  169000    1.0029478   -2.6667437   -2.6667437   -1.5038066  0.067139558   -2.6667437    1.1629371   312436 
  170000    1.0028288   -2.6681977   -2.6681977   -1.5053763  0.063161365   -2.6681977    1.1628214   312430 
  171000    1.0009138   -2.6669609   -2.6669609   -1.5063376  0.069508872   -2.6669609    1.1606232   312424 
  172000    1.0031761   -2.6673893   -2.6673893   -1.5041242  0.063435822   -2.6673893    1.1632651   312419 
  173000   0.99977368   -2.6642546   -2.6642546   -1.5049126  0.062973027   -2.6642546     1.159342   312413 
  174000    1.0014101   -2.6673601   -2.6673601   -1.5060982  0.066369807   -2.6673601    1.1612619   312407 
  175000     1.002104   -2.6674132   -2.6674132   -1.5053244   0.06866479   -2.6674132    1.1620888   312401 
  176000    1.0005513   -2.6656533   -2.6656533   -1.5053465  0.075406623   -2.6656533    1.1603069   312396 
  177000    1.0009498   -2.6657394   -2.6657394   -1.5049481  0.071153528   -2.6657394    1.1607913   312390 
  178000    1.0015407   -2.6658653   -2.6658653   -1.5043665   0.05575333   -2.6658653    1.1614988   312384 
  179000    1.0020928   -2.6665237   -2.6665237   -1.5043659  0.077156004   -2.6665237    1.1621578   312379 
  180000   0.99913235   -2.6646186   -2.6646186   -1.5058719  0.061911149   -2.6646186    1.1587467   312373 
  181000     1.000582   -2.6656635   -2.6656635   -1.5052133  0.061201478   -2.6656635    1.1604502   312367 
  182000   0.99842609   -2.6650581   -2.6650581   -1.5070861  0.059170161   -2.6650581    1.1579721   312361 
  183000   0.99852465   -2.6639981   -2.6639981   -1.5058932  0.055298817   -2.6639981    1.1581049   312356 
  184000   0.99874614   -2.6631668   -2.6631668   -1.5047827  0.047926461   -2.6631668     1.158384   312350 
  185000   0.99960299   -2.6630376   -2.6630376   -1.5036375  0.061321884   -2.6630376    1.1594001   312344 
  186000   0.99986072   -2.6635872   -2.6635872   -1.5038695  0.072863155   -2.6635872    1.1597176   312339 
  187000    1.0007444   -2.6654741   -2.6654741   -1.5047092  0.062471424   -2.6654741    1.1607649   312333 
  188000   0.99958607   -2.6643495   -2.6643495   -1.5049059  0.063623094   -2.6643495    1.1594436   312327 
  189000   0.99937892   -2.6651478   -2.6651478   -1.5059222  0.066465249   -2.6651478    1.1592256   312321 
  190000   0.99820495   -2.6627344   -2.6627344   -1.5048521  0.076032939   -2.6627344    1.1578824   312316 
  191000   0.99962818    -2.663619    -2.663619   -1.5040634  0.064966567    -2.663619    1.1595556   312310 
  192000   0.99890023   -2.6617045   -2.6617045   -1.5029711  0.073368352   -2.6617045    1.1587334   312304 
  193000    1.0003474   -2.6631709   -2.6631709   -1.5027402  0.062871882   -2.6631709    1.1604307   312299 
  194000    1.0012097   -2.6635477   -2.6635477   -1.5020944  0.071381097   -2.6635477    1.1614533   312293 
  195000    1.0010767   -2.6648105   -2.6648105   -1.5034891  0.061239678   -2.6648105    1.1613214   312287 
  196000   0.99853605   -2.6623913   -2.6623913    -1.503995  0.065606883   -2.6623913    1.1583963   312281 
  197000   0.99917053   -2.6619887   -2.6619887   -1.5028378  0.073837484   -2.6619887    1.1591509   312276 
  198000    1.0012301   -2.6642948   -2.6642948   -1.5027323  0.073865771   -2.6642948    1.1615625   312270 
  199000    1.0002916   -2.6642075   -2.6642075   -1.5037114  0.066014971   -2.6642075    1.1604961   312264 
  200000    1.0015472    -2.664115    -2.664115   -1.5021436  0.059217125    -2.664115    1.1619714   312259 
  201000    1.0003811   -2.6647893   -2.6647893   -1.5041486  0.072959451   -2.6647893    1.1606407   312253 
  202000    1.0008753   -2.6650565   -2.6650565     -1.50382  0.066097679   -2.6650565    1.1612365   312247 
  203000   0.99956945   -2.6630683   -2.6630683   -1.5033246  0.072316089   -2.6630683    1.1597437   312241 
  204000   0.99853403   -2.6633764   -2.6633764   -1.5048155  0.061583703   -2.6633764    1.1585609   312236 
  205000   0.99968291   -2.6631942   -2.6631942    -1.503278  0.064360879   -2.6631942    1.1599162   312230 
  206000    1.0011979   -2.6643319   -2.6643319   -1.5026355   0.06286143   -2.6643319    1.1616964   312224 
  207000   0.99820264    -2.662023    -2.662023   -1.5037836  0.069649137    -2.662023    1.1582394   312219 
  208000   0.99696952   -2.6621574   -2.6621574   -1.5053266  0.066914057   -2.6621574    1.1568309   312213 
  209000   0.99893308   -2.6659291   -2.6659291   -1.5067975  0.063244645   -2.6659291    1.1591315   312207 
  210000    1.0007983   -2.6663809   -2.6663809   -1.5050627  0.060247165   -2.6663809    1.1613182   312201 
  211000    1.0006454   -2.6665936   -2.6665936   -1.5054342  0.072745208   -2.6665936    1.1611594   312196 
  212000   0.99980322   -2.6660143   -2.6660143   -1.5058099  0.073670373   -2.6660143    1.1602044   312190 
  213000   0.99819768   -2.6640918   -2.6640918   -1.5057283  0.060164697   -2.6640918    1.1583635   312184 
  214000   0.99961088   -2.6643494   -2.6643494   -1.5043273   0.07763545   -2.6643494    1.1600221   312179 
  215000   0.99990802   -2.6654583   -2.6654583   -1.5050691  0.071056524   -2.6654583    1.1603892   312173 
  216000   0.99974695   -2.6643982   -2.6643982   -1.5041736  0.059628776   -2.6643982    1.1602246   312167 
  217000    1.0008989   -2.6657966   -2.6657966   -1.5042128  0.082892633   -2.6657966    1.1615838   312161 
  218000    1.0009437   -2.6672186   -2.6672186   -1.5055642  0.070565631   -2.6672186    1.1616543   312156 
  219000   0.99941771   -2.6657224   -2.6657224   -1.5058168  0.071461714   -2.6657224    1.1599057   312150 
  220000   0.99738725   -2.6662973   -2.6662973   -1.5087259  0.069211158   -2.6662973    1.1575714   312144 
  221000   0.99563505   -2.6622745   -2.6622745   -1.5067182  0.072342396   -2.6622745    1.1555563   312139 
  222000    0.9984224   -2.6648035   -2.6648035   -1.5059898  0.064353723   -2.6648035    1.1588136   312133 
  223000   0.99703179   -2.6651984   -2.6651984   -1.5079766  0.055965782   -2.6651984    1.1572219   312127 
  224000   0.99810689   -2.6645887   -2.6645887   -1.5060967  0.059661511   -2.6645887     1.158492   312121 
  225000   0.99746073   -2.6634896   -2.6634896   -1.5057291  0.060199021   -2.6634896    1.1577605   312116 
  226000    1.0001039   -2.6665648   -2.6665648    -1.505714  0.064498616   -2.6665648    1.1608508   312110 
  227000   0.99835197   -2.6643556   -2.6643556    -1.505516  0.067548912   -2.6643556    1.1588395   312104 
  228000   0.99941282   -2.6657495   -2.6657495     -1.50566  0.058454816   -2.6657495    1.1600895   312099 
  229000   0.99908718   -2.6640122   -2.6640122   -1.5042783   0.06656887   -2.6640122    1.1597338   312093 
  230000   0.99945531   -2.6649095   -2.6649095   -1.5047261  0.061744428   -2.6649095    1.1601835   312087 
  231000    1.0007448   -2.6656754   -2.6656754   -1.5039728  0.055699498   -2.6656754    1.1617026   312081 
  232000    1.0008795   -2.6663672   -2.6663672   -1.5044895  0.075058399   -2.6663672    1.1618777   312076 
  233000   0.99871146   -2.6640898   -2.6640898   -1.5047067   0.06818989   -2.6640898    1.1593831   312070 
  234000   0.99998806   -2.6649297   -2.6649297   -1.5040423  0.062721213   -2.6649297    1.1608874   312064 
  235000    1.0016081   -2.6649184   -2.6649184   -1.5021316  0.063061171   -2.6649184    1.1627868   312059 
  236000   0.99964913   -2.6631148   -2.6631148   -1.5025799  0.066629983   -2.6631148    1.1605349   312053 
  237000   0.99879639   -2.6624078   -2.6624078   -1.5028406  0.073944938   -2.6624078    1.1595672   312047 
  238000   0.99953955   -2.6619984   -2.6619984   -1.5015461  0.066651256   -2.6619984    1.1604523   312041 
  239000     0.999827   -2.6634319   -2.6634319   -1.5026273  0.064430166   -2.6634319    1.1608046   312036 
  240000   0.99923143   -2.6645637   -2.6645637   -1.5044282  0.066487953   -2.6645637    1.1601355   312030 
  241000   0.99736137   -2.6625243   -2.6625243   -1.5045378  0.069848061   -2.6625243    1.1579865   312024 
  242000   0.99763732   -2.6612267   -2.6612267   -1.5029012  0.072761678   -2.6612267    1.1583255   312019 
  243000    1.0008389   -2.6659843   -2.6659843   -1.5039191  0.062158965   -2.6659843    1.1620651   312013 
  244000   0.99651279   -2.6618984   -2.6618984    -1.504834  0.063645506   -2.6618984    1.1570643   312007 
  245000   0.99767838   -2.6635509   -2.6635509   -1.5051109  0.065603128   -2.6635509      1.15844   312001 
  246000   0.99750332   -2.6636132   -2.6636132    -1.505358  0.061139467   -2.6636132    1.1582553   311996 
  247000     0.996391   -2.6633456   -2.6633456   -1.5063597  0.066386923   -2.6633456    1.1569859   311990 
  248000   0.99703184    -2.663833    -2.663833   -1.5060807  0.059246215    -2.663833    1.1577523   311984 
  249000   0.99814244   -2.6636365   -2.6636365    -1.504576  0.066273534   -2.6636365    1.1590605   311979 
  250000   0.99866236   -2.6617547   -2.6617547   -1.5020681  0.063521718   -2.6617547    1.1596866   311973 
  251000   0.99891367   -2.6632639   -2.6632639   -1.5032632  0.059073943   -2.6632639    1.1600007   311967 
  252000   0.99805931   -2.6619596   -2.6619596   -1.5029287  0.067759958   -2.6619596    1.1590309   311961 
  253000   0.99611702   -2.6611525   -2.6611525   -1.5043586  0.069976276   -2.6611525    1.1567939   311956 
  254000    1.0001226    -2.663467    -2.663467   -1.5019991  0.065232928    -2.663467    1.1614679   311950 
  255000   0.99730049   -2.6607369   -2.6607369   -1.5025242  0.076790383   -2.6607369    1.1582128   311944 
  256000    0.9999806   -2.6634051   -2.6634051   -1.5020612  0.054365878   -2.6634051     1.161344   311939 
  257000    0.9991565   -2.6633385   -2.6633385   -1.5029293  0.066582057   -2.6633385    1.1604092   311933 
  258000   0.99954923   -2.6628743   -2.6628743   -1.5019866  0.062206516   -2.6628743    1.1608876   311927 
  259000    1.0003577   -2.6625421   -2.6625421   -1.5006932  0.062843726   -2.6625421     1.161849   311921 
  260000    1.0002268   -2.6632974   -2.6632974   -1.5015818  0.066456333   -2.6632974    1.1617155   311916 
  261000    1.0007446    -2.664418    -2.664418   -1.5020787  0.073708518    -2.664418    1.1623393   311910 
  262000   0.99974272   -2.6613275   -2.6613275   -1.5001296  0.059564174   -2.6613275     1.161198   311904 
  263000   0.99964212   -2.6619739   -2.6619739   -1.5008742  0.083149604   -2.6619739    1.1610997   311899 
  264000    0.9998351   -2.6640107   -2.6640107   -1.5026645    0.0760087   -2.6640107    1.1613462   311893 
  265000   0.99851463   -2.6624135   -2.6624135   -1.5025788  0.065359872   -2.6624135    1.1598348   311887 
  266000   0.99927801   -2.6640811   -2.6640811   -1.5033373  0.061905916   -2.6640811    1.1607438   311881 
  267000   0.99681648   -2.6608151   -2.6608151    -1.502912  0.071975272   -2.6608151    1.1579031   311876 
  268000   0.99695395   -2.6610336   -2.6610336   -1.5029485   0.05947539   -2.6610336    1.1580851   311870 
  269000   0.99710937   -2.6608467   -2.6608467   -1.5025588   0.05926108   -2.6608467    1.1582879   311864 
  270000   0.99589165   -2.6601981   -2.6601981   -1.5033062  0.073083534   -2.6601981    1.1568919   311859 
  271000   0.99516981   -2.6597953   -2.6597953   -1.5037198  0.071144673   -2.6597953    1.1560756   311853 
  272000   0.99923408   -2.6635368   -2.6635368   -1.5027175  0.061782234   -2.6635368    1.1608193   311847 
  273000   0.99808045   -2.6626536   -2.6626536   -1.5031521  0.067127519   -2.6626536    1.1595015   311841 
  274000   0.99792675   -2.6613428   -2.6613428   -1.5020013  0.061721264   -2.6613428    1.1593415   311836 
  275000   0.99858314   -2.6626597   -2.6626597   -1.5025333  0.066456125   -2.6626597    1.1601264   311830 
  276000   0.99756195   -2.6611146   -2.6611146   -1.5021523  0.061565525   -2.6611146    1.1589623   311824 
  277000   0.99942279   -2.6622404   -2.6622404   -1.5010976   0.06637535   -2.6622404    1.1611428   311819 
  278000    0.9990466   -2.6626222   -2.6626222   -1.5018941  0.063924472   -2.6626222    1.1607281   311813 
  279000    1.0000325   -2.6645226   -2.6645226   -1.5026267  0.064230391   -2.6645226    1.1618959   311807 
  280000   0.99871857    -2.665125    -2.665125   -1.5047333  0.063244271    -2.665125    1.1603916   311801 
  281000   0.99820044   -2.6623593   -2.6623593   -1.5025511  0.070495906   -2.6623593    1.1598082   311796 
  282000   0.99638144   -2.6612559   -2.6612559   -1.5035389   0.06878894   -2.6612559     1.157717   311790 
  283000   0.99848989   -2.6641976   -2.6641976   -1.5040084  0.076584863   -2.6641976    1.1601892   311784 
  284000   0.99706251   -2.6625978   -2.6625978   -1.5040486  0.065831839   -2.6625978    1.1585492   311779 
  285000   0.99905717   -2.6627299   -2.6627299   -1.5018406  0.068386618   -2.6627299    1.1608893   311773 
  286000   0.99818419   -2.6640351   -2.6640351   -1.5041379  0.057968916   -2.6640351    1.1598972   311767 
  287000   0.99526138   -2.6610021   -2.6610021    -1.504479  0.065047897   -2.6610021    1.1565232   311761 
  288000   0.99598953   -2.6619536   -2.6619536   -1.5045658  0.070072777   -2.6619536    1.1573878   311756 
  289000   0.99685502   -2.6625873   -2.6625873   -1.5041714  0.064461767   -2.6625873    1.1584159   311750 
  290000   0.99661462   -2.6619232   -2.6619232   -1.5037644  0.074251279   -2.6619232    1.1581588   311744 
  291000   0.99691066   -2.6649409   -2.6649409   -1.5064195  0.064189957   -2.6649409    1.1585214   311739 
  292000   0.99488073   -2.6615833   -2.6615833   -1.5053986  0.077091953   -2.6615833    1.1561847   311733 
  293000   0.99665185   -2.6638945   -2.6638945   -1.5056292  0.071283565   -2.6638945    1.1582652   311727 
  294000   0.99692061   -2.6640211   -2.6640211   -1.5054212  0.056271278   -2.6640211    1.1585999   311721 
  295000   0.99663995   -2.6632996   -2.6632996   -1.5050074  0.069179066   -2.6632996    1.1582923   311716 
  296000   0.99859184   -2.6634597   -2.6634597   -1.5028766  0.065650175   -2.6634597    1.1605831   311710 
  297000   0.99913808    -2.665079    -2.665079   -1.5038387  0.064185048    -2.665079    1.1612403   311704 
  298000   0.99717558   -2.6632537   -2.6632537   -1.5042757  0.074299341   -2.6632537     1.158978   311699 
  299000   0.99763958   -2.6646318   -2.6646318   -1.5050922  0.063137784   -2.6646318    1.1595396   311693 
  300000   0.99741622   -2.6638171   -2.6638171   -1.5045148  0.068176596   -2.6638171    1.1593023   311687 
  301000   0.99796074   -2.6645545   -2.6645545   -1.5045969   0.07197962   -2.6645545    1.1599575   311681 
  302000   0.99704717    -2.662768    -2.662768   -1.5038537  0.070136514    -2.662768    1.1589143   311676 
  303000   0.99707964   -2.6632371   -2.6632371   -1.5042628  0.071020937   -2.6632371    1.1589743   311670 
  304000    0.9957949   -2.6652007   -2.6652007   -1.5076975  0.059801436   -2.6652007    1.1575033   311664 
  305000   0.99783899    -2.667493    -2.667493   -1.5075951   0.06147245    -2.667493    1.1598979   311659 
  306000   0.99596362   -2.6638828   -2.6638828   -1.5061425  0.058734295   -2.6638828    1.1577402   311653 
  307000     0.996909   -2.6664425   -2.6664425   -1.5075811  0.064706639   -2.6664425    1.1588615   311647 
  308000   0.99328371   -2.6621527   -2.6621527   -1.5074832   0.07017514   -2.6621527    1.1546695   311641 
  309000    0.9955458   -2.6644794   -2.6644794   -1.5071617  0.059098357   -2.6644794    1.1573177   311636 
  310000      0.99369   -2.6624245   -2.6624245   -1.5072419  0.072721331   -2.6624245    1.1551826   311630 
  311000   0.99458054   -2.6638529   -2.6638529   -1.5076128  0.061655688   -2.6638529    1.1562401   311624 
  312000   0.99540552   -2.6656223   -2.6656223   -1.5084046  0.059658885   -2.6656223    1.1572177   311619 
  313000   0.99545786   -2.6661053   -2.6661053   -1.5088044   0.05926309   -2.6661053    1.1573009   311613 
  314000   0.99856676    -2.667879    -2.667879   -1.5069414  0.072345825    -2.667879    1.1609376   311607 
  315000   0.99646751   -2.6658507   -2.6658507   -1.5073315  0.072237066   -2.6658507    1.1585193   311601 
  316000   0.99441741   -2.6642038   -2.6642038   -1.5080495  0.052607597   -2.6642038    1.1561543   311596 
  317000   0.99788125   -2.6667206   -2.6667206   -1.5065167  0.057460894   -2.6667206    1.1602039   311590 
  318000   0.99642476   -2.6649159   -2.6649159   -1.5063832  0.057028314   -2.6649159    1.1585328   311584 
  319000   0.99677924   -2.6658751   -2.6658751   -1.5069116  0.060866701   -2.6658751    1.1589635   311579 
  320000   0.99779805   -2.6665688   -2.6665688   -1.5063983  0.059618151   -2.6665688    1.1601705   311573 
  321000    0.9970444   -2.6650375   -2.6650375   -1.5057211  0.084599043   -2.6650375    1.1593165   311567 
  322000   0.99811118   -2.6674287   -2.6674287   -1.5068494  0.072823369   -2.6674287    1.1605792   311561 
  323000    1.0006214   -2.6695341   -2.6695341   -1.5060174  0.060935084   -2.6695341    1.1635167   311556 
  324000   0.99643348    -2.666786    -2.666786   -1.5081167  0.069102307    -2.666786    1.1586693   311550 
  325000   0.99672053   -2.6667219   -2.6667219   -1.5076964   0.06188066   -2.6667219    1.1590255   311544 
  326000   0.99555744    -2.666395    -2.666395   -1.5087035  0.065746799    -2.666395    1.1576916   311539 
  327000   0.99611012   -2.6665012   -2.6665012   -1.5081447  0.066865131   -2.6665012    1.1583566   311533 
  328000   0.99718452   -2.6668224   -2.6668224   -1.5071941  0.069109516   -2.6668224    1.1596283   311527 
  329000   0.99653753   -2.6680825   -2.6680825   -1.5091843  0.051662759   -2.6680825    1.1588982   311521 
  330000   0.99447336   -2.6658374   -2.6658374   -1.5093211  0.060483222   -2.6658374    1.1565163   311516 
  331000   0.99765561   -2.6673248   -2.6673248   -1.5070854  0.058614068   -2.6673248    1.1602394   311510 
  332000   0.99355256    -2.663533    -2.663533    -1.508043  0.065140704    -2.663533      1.15549   311504 
  333000   0.99454582   -2.6655475   -2.6655475   -1.5088839  0.059815814   -2.6655475    1.1566637   311499 
  334000   0.99624543   -2.6665899   -2.6665899   -1.5079272  0.059943764   -2.6665899    1.1586627   311493 
  335000     0.994862    -2.665403    -2.665403    -1.508327  0.069195325    -2.665403     1.157076   311487 
  336000   0.99529283   -2.6649784   -2.6649784    -1.507379  0.065271217   -2.6649784    1.1575994   311481 
  337000   0.99768462    -2.666028    -2.666028   -1.5056282  0.058149311    -2.666028    1.1603998   311476 
  338000   0.99719584    -2.665597    -2.665597   -1.5057433  0.064008775    -2.665597    1.1598537   311470 
  339000    0.9972474   -2.6655035   -2.6655035   -1.5055675  0.065699151   -2.6655035     1.159936   311464 
  340000   0.99584368   -2.6636271   -2.6636271   -1.5053052  0.076786641   -2.6636271    1.1583219   311459 
  341000   0.99678011   -2.6649566   -2.6649566   -1.5055232  0.066225424   -2.6649566    1.1594334   311453 
  342000   0.99701991   -2.6633912   -2.6633912   -1.5036565   0.07423421   -2.6633912    1.1597347   311447 
  343000   0.99908222   -2.6652529   -2.6652529    -1.503097  0.077798078   -2.6652529    1.1621559   311441 
  344000   0.99870759   -2.6655695   -2.6655695   -1.5038307  0.066270785   -2.6655695    1.1617388   311436 
  345000   0.99997742   -2.6675027   -2.6675027   -1.5042644  0.066609284   -2.6675027    1.1632383   311430 
  346000    1.0005678   -2.6681806   -2.6681806   -1.5042331  0.057590882   -2.6681806    1.1639475   311424 
  347000   0.99822138    -2.664784    -2.664784   -1.5035474  0.075894569    -2.664784    1.1612366   311419 
  348000   0.99470293   -2.6615871   -2.6615871   -1.5044213   0.07478644   -2.6615871    1.1571659   311413 
  349000   0.99668567   -2.6631788   -2.6631788    -1.503684  0.066557403   -2.6631788    1.1594948   311407 
  350000   0.99570712   -2.6625641   -2.6625641   -1.5041854  0.066264659   -2.6625641    1.1583787   311401 
  351000   0.99361216   -2.6597712   -2.6597712   -1.5038111  0.067023264   -2.6597712    1.1559601   311396 
  352000    0.9945784   -2.6610414   -2.6610414   -1.5039349  0.064687224   -2.6610414    1.1571065   311390 
  353000   0.99608016   -2.6626611   -2.6626611   -1.5037851   0.07178684   -2.6626611     1.158876   311384 
  354000   0.99612375   -2.6615433   -2.6615433    -1.502598  0.069795416   -2.6615433    1.1589453   311379 
  355000   0.99760092   -2.6629361   -2.6629361   -1.5022498  0.058473047   -2.6629361    1.1606863   311373 
  356000   0.99498565   -2.6602216   -2.6602216   -1.5025558  0.062826558   -2.6602216    1.1576658   311367 
  357000   0.99553343   -2.6615486   -2.6615486   -1.5032231  0.049529987   -2.6615486    1.1583255   311361 
  358000   0.99487266   -2.6615366   -2.6615366   -1.5039614  0.050440695   -2.6615366    1.1575752   311356 
  359000   0.99704645   -2.6630128   -2.6630128   -1.5028859  0.067021453   -2.6630128    1.1601269   311350 
  360000    0.9955241     -2.65959     -2.65959   -1.5012121  0.060531037     -2.65959    1.1583778   311344 
  361000   0.99480775   -2.6595255   -2.6595255   -1.5019626  0.064909119   -2.6595255    1.1575629   311339 
  362000   0.99353234    -2.659848    -2.659848   -1.5037468  0.069541465    -2.659848    1.1561011   311333 
  363000   0.99214001   -2.6588025   -2.6588025   -1.5042993  0.067592262   -2.6588025    1.1545032   311327 
  364000   0.99460968   -2.6605829   -2.6605829   -1.5031835  0.063634929   -2.6605829    1.1573993   311321 
  365000   0.99390785   -2.6604336   -2.6604336   -1.5038324  0.063699306   -2.6604336    1.1566012   311316 
  366000   0.99213205   -2.6592799   -2.6592799   -1.5047229  0.048943647   -2.6592799     1.154557   311310 
  367000   0.99537537   -2.6625266   -2.6625266    -1.504173  0.049409655   -2.6625266    1.1583536   311304 
  368000   0.99351261   -2.6603931   -2.6603931   -1.5041887  0.062554037   -2.6603931    1.1562044   311299 
  369000   0.99503226    -2.661583    -2.661583   -1.5035878  0.064355682    -2.661583    1.1579952   311293 
  370000   0.99672179     -2.66371     -2.66371   -1.5037262  0.064132091     -2.66371    1.1599838   311287 
  371000   0.99639015   -2.6627687   -2.6627687   -1.5031485  0.050516738   -2.6627687    1.1596202   311281 
  372000   0.99728987   -2.6643654   -2.6643654   -1.5036794  0.073821834   -2.6643654     1.160686   311276 
  373000   0.99795001   -2.6657403   -2.6657403   -1.5042637   0.05664458   -2.6657403    1.1614767   311270 
  374000   0.99649041   -2.6641595   -2.6641595   -1.5043593  0.063689082   -2.6641595    1.1598002   311264 
  375000     0.995094   -2.6624805   -2.6624805    -1.504287  0.059820897   -2.6624805    1.1581936   311259 
  376000   0.99643608   -2.6641452   -2.6641452   -1.5043672  0.067279274   -2.6641452     1.159778   311253 
  377000    0.9961493   -2.6644781   -2.6644781   -1.5050116  0.054871159   -2.6644781    1.1594665   311247 
  378000    0.9965666   -2.6644715   -2.6644715   -1.5044969  0.078060651   -2.6644715    1.1599746   311241 
  379000   0.99848957   -2.6648711   -2.6648711   -1.5026395   0.06740931   -2.6648711    1.1622316   311236 
  380000   0.99646005   -2.6641231   -2.6641231   -1.5042315  0.072161334   -2.6641231    1.1598916   311230 
  381000   0.99561261   -2.6634635   -2.6634635    -1.504536  0.067715818   -2.6634635    1.1589275   311224 
  382000   0.99838332   -2.6665497   -2.6665497   -1.5043783  0.077516925   -2.6665497    1.1621714   311219 
  383000   0.99719398   -2.6650951   -2.6650951   -1.5042858  0.060757781   -2.6650951    1.1608093   311213 
  384000   0.99494978   -2.6627101   -2.6627101   -1.5044908  0.063266963   -2.6627101    1.1582192   311207 
  385000   0.99691236   -2.6649273   -2.6649273   -1.5044011  0.067516614   -2.6649273    1.1605262   311201 
  386000   0.99809128    -2.666005    -2.666005   -1.5040877  0.072390335    -2.666005    1.1619173   311196 
  387000   0.99606895   -2.6633159   -2.6633159   -1.5037305  0.070701533   -2.6633159    1.1595854   311190 
  388000   0.99433367   -2.6629761   -2.6629761   -1.5053886  0.064735044   -2.6629761    1.1575876   311184 
  389000   0.99626073   -2.6655398   -2.6655398   -1.5056902  0.065003691   -2.6655398    1.1598497   311179 
  390000   0.99375155   -2.6617641   -2.6617641   -1.5048133  0.073118966   -2.6617641    1.1569508   311173 
  391000   0.99562247   -2.6640996   -2.6640996   -1.5049483  0.062164003   -2.6640996    1.1591513   311167 
  392000   0.99499633   -2.6630106   -2.6630106    -1.504566  0.057359338   -2.6630106    1.1584446   311161 
  393000   0.99508828    -2.664491    -2.664491   -1.5059207  0.060688148    -2.664491    1.1585703   311156 
  394000   0.99527967   -2.6639178   -2.6639178   -1.5051023  0.064100688   -2.6639178    1.1588155   311150 
  395000   0.99650979   -2.6643922   -2.6643922   -1.5041221  0.059581094   -2.6643922    1.1602701   311144 
  396000   0.99623697   -2.6643345   -2.6643345   -1.5043634  0.070615056   -2.6643345    1.1599711   311139 
  397000   0.99644876   -2.6639184   -2.6639184   -1.5036784  0.062729138   -2.6639184    1.1602401   311133 
  398000   0.99556925   -2.6642367   -2.6642367   -1.5049983  0.076499506   -2.6642367    1.1592383   311127 
  399000   0.99580325   -2.6634694   -2.6634694   -1.5039363  0.064133814   -2.6634694    1.1595332   311121 
  400000   0.99809194   -2.6664875   -2.6664875   -1.5042706  0.057679168   -2.6664875    1.1622168   311116 
  401000   0.99702379     -2.66395     -2.66395   -1.5029546  0.064112487     -2.66395    1.1609954   311110 
  402000   0.99533424   -2.6632873   -2.6632873   -1.5042369  0.066946342   -2.6632873    1.1590504   311104 
  403000   0.99574754   -2.6637492   -2.6637492   -1.5041989  0.051456739   -2.6637492    1.1595503   311099 
  404000   0.99475158    -2.664204    -2.664204   -1.5057911  0.045662484    -2.664204    1.1584128   311093 
  405000   0.99569283   -2.6638953   -2.6638953    -1.504364  0.058877225   -2.6638953    1.1595313   311087 
  406000   0.99311786   -2.6626486   -2.6626486   -1.5060936  0.061236253   -2.6626486     1.156555   311081 
  407000   0.99375306   -2.6618403   -2.6618403    -1.504527  0.074766698   -2.6618403    1.1573133   311076 
  408000   0.99251697   -2.6608227   -2.6608227   -1.5049267  0.068023004   -2.6608227     1.155896   311070 
  409000   0.99471911   -2.6631496   -2.6631496   -1.5046666  0.070262859   -2.6631496     1.158483   311064 
  410000   0.99501795   -2.6645444   -2.6645444   -1.5056947  0.071114295   -2.6645444    1.1588497   311059 
  411000    0.9976936   -2.6663112   -2.6663112   -1.5043229  0.065500156   -2.6663112    1.1619883   311053 
  412000    0.9969444   -2.6660625   -2.6660625   -1.5049244  0.063832416   -2.6660625    1.1611381   311047 
  413000   0.99500226   -2.6634438   -2.6634438   -1.5045453  0.062720912   -2.6634438    1.1588985   311041 
  414000   0.99597577   -2.6653652   -2.6653652   -1.5053143  0.066064234   -2.6653652     1.160051   311036 
  415000   0.99410999   -2.6627941   -2.6627941   -1.5048939  0.073063299   -2.6627941    1.1579002   311030 
  416000   0.99406482    -2.663209    -2.663209   -1.5053391  0.069755766    -2.663209    1.1578699   311024 
  417000   0.99424425   -2.6630963   -2.6630963   -1.5049988  0.061489391   -2.6630963    1.1580975   311019 
  418000   0.99401378   -2.6638436   -2.6638436   -1.5059922  0.061109901   -2.6638436    1.1578514   311013 
  419000   0.99242698   -2.6618433   -2.6618433   -1.5058179  0.061521464   -2.6618433    1.1560254   311007 
  420000   0.99277028   -2.6627638   -2.6627638   -1.5063162  0.069528115   -2.6627638    1.1564476   311001 
  421000   0.99324773   -2.6635135   -2.6635135   -1.5064911  0.065833485   -2.6635135    1.1570223   310996 
  422000   0.99507229   -2.6653003   -2.6653003   -1.5061302  0.053783338   -2.6653003    1.1591701   310990 
  423000   0.99331408   -2.6645399   -2.6645399   -1.5073956   0.06151102   -2.6645399    1.1571443   310984 
  424000   0.99462213   -2.6646329   -2.6646329   -1.5059463  0.058641801   -2.6646329    1.1586867   310979 
  425000   0.99469346   -2.6642928   -2.6642928   -1.5055007  0.063436003   -2.6642928    1.1587922   310973 
  426000   0.99297984   -2.6628669   -2.6628669   -1.5060487   0.06527652   -2.6628669    1.1568181   310967 
  427000   0.99455135   -2.6657929   -2.6657929   -1.5071216  0.061733833   -2.6657929    1.1586713   310961 
  428000   0.99250961   -2.6632549   -2.6632549   -1.5069437  0.065936679   -2.6632549    1.1563112   310956 
  429000   0.99514685   -2.6659085   -2.6659085   -1.5065024  0.074218612   -2.6659085    1.1594061   310950 
  430000   0.99738972   -2.6688981   -2.6688981   -1.5068565  0.062891331   -2.6688981    1.1620416   310944 
  431000   0.99766156   -2.6680227   -2.6680227   -1.5056457  0.070109276   -2.6680227     1.162377   310939 
  432000   0.99363019   -2.6639155   -2.6639155   -1.5062131  0.072073561   -2.6639155    1.1577024   310933 
  433000   0.99464162   -2.6654927   -2.6654927   -1.5065895  0.066682536   -2.6654927    1.1589032   310927 
  434000   0.99531278   -2.6662935   -2.6662935    -1.506586   0.07576991   -2.6662935    1.1597076   310921 
  435000   0.99708108   -2.6666025   -2.6666025   -1.5048159  0.068526679   -2.6666025    1.1617866   310916 
  436000   0.99533098   -2.6661267   -2.6661267   -1.5063569  0.060154339   -2.6661267    1.1597698   310910 
  437000   0.99539851    -2.667654    -2.667654   -1.5077831  0.056112843    -2.667654    1.1598709   310904 
  438000   0.99414098   -2.6649997   -2.6649997   -1.5065755  0.062051265   -2.6649997    1.1584242   310899 
  439000   0.99226458   -2.6630863   -2.6630863   -1.5068263  0.058176453   -2.6630863      1.15626   310893 
  440000   0.99183095   -2.6622576   -2.6622576   -1.5064806  0.052171921   -2.6622576     1.155777   310887 
  441000   0.99352291   -2.6637602   -2.6637602   -1.5059892  0.063678249   -2.6637602     1.157771   310881 
  442000   0.99466689    -2.664815    -2.664815   -1.5056922  0.062770936    -2.664815    1.1591228   310876 
  443000   0.99344596   -2.6629512   -2.6629512    -1.505229   0.05259325   -2.6629512    1.1577223   310870 
  444000   0.99230686   -2.6636798   -2.6636798   -1.5072626  0.063786213   -2.6636798    1.1564172   310864 
  445000   0.99201003   -2.6615365   -2.6615365   -1.5054466   0.06591611   -2.6615365    1.1560898   310859 
  446000   0.99377168    -2.663939    -2.663939   -1.5057737  0.059889567    -2.663939    1.1581652   310853 
  447000   0.99387632   -2.6629196   -2.6629196   -1.5046101  0.061971476   -2.6629196    1.1583095   310847 
  448000   0.99299589   -2.6618323   -2.6618323   -1.5045265  0.058880918   -2.6618323    1.1573058   310841 
  449000   0.99173941   -2.6612594   -2.6612594   -1.5053994  0.072664364   -2.6612594      1.15586   310836 
  450000   0.99365947   -2.6617983   -2.6617983   -1.5036781  0.060757934   -2.6617983    1.1581201   310830 
  451000   0.99597585   -2.6612764   -2.6612764   -1.5004341  0.069450255   -2.6612764    1.1608423   310824 
  452000   0.99412828   -2.6610081   -2.6610081   -1.5023005  0.055892803   -2.6610081    1.1587075   310819 
  453000   0.99359208    -2.660871    -2.660871   -1.5027661  0.066826512    -2.660871    1.1581049   310813 
  454000   0.99299548   -2.6600354   -2.6600354   -1.5026035  0.053875454   -2.6600354    1.1574319   310807 
  455000   0.99382748   -2.6624884   -2.6624884   -1.5040644  0.064755009   -2.6624884     1.158424   310801 
  456000   0.99318234   -2.6593861   -2.6593861   -1.5016954  0.061775404   -2.6593861    1.1576907   310796 
  457000   0.99357142   -2.6613409   -2.6613409   -1.5031743   0.08004723   -2.6613409    1.1581666   310790 
  458000    0.9923756   -2.6590141   -2.6590141   -1.5022192  0.054394198   -2.6590141     1.156795   310784 
  459000   0.99391641   -2.6587825   -2.6587825   -1.5001728  0.061781541   -2.6587825    1.1586097   310779 
  460000    0.9928817   -2.6584597   -2.6584597   -1.5010338  0.058367216   -2.6584597    1.1574259   310773 
  461000   0.99643465   -2.6634285   -2.6634285   -1.5018384  0.056063202   -2.6634285    1.1615901   310767 
  462000   0.99407109   -2.6610848   -2.6610848   -1.5022276  0.057444404   -2.6610848    1.1588571   310761 
  463000    0.9936703   -2.6604979   -2.6604979   -1.5020894  0.058649981   -2.6604979    1.1584085   310756 
  464000   0.99282431   -2.6589664   -2.6589664   -1.5015217  0.058819722   -2.6589664    1.1574446   310750 
  465000   0.99599257   -2.6613972   -2.6613972   -1.5002366  0.058857143   -2.6613972    1.1611607   310744 
  466000    0.9928423   -2.6580987   -2.6580987   -1.5005921  0.073713998   -2.6580987    1.1575066   310739 
  467000    0.9927402   -2.6580266   -2.6580266   -1.5006167  0.047606734   -2.6580266    1.1574099   310733 
  468000   0.99213491   -2.6568659   -2.6568659   -1.5001394  0.067770787   -2.6568659    1.1567265   310727 
  469000   0.99365434   -2.6576994   -2.6576994    -1.499179  0.056375224   -2.6576994    1.1585204   310721 
  470000   0.99149092   -2.6572278   -2.6572278   -1.5012111  0.066339689   -2.6572278    1.1560166   310716 
  471000   0.99158803   -2.6567632   -2.6567632    -1.500611  0.068383266   -2.6567632    1.1561522   310710 
  472000   0.99197436   -2.6586531   -2.6586531   -1.5020281  0.056290845   -2.6586531     1.156625   310704 
  473000   0.99134352     -2.65814     -2.65814    -1.502232   0.05333803     -2.65814     1.155908   310699 
  474000   0.99105531    -2.658167    -2.658167   -1.5025727  0.061335768    -2.658167    1.1555943   310693 
  475000   0.99155192   -2.6583837   -2.6583837    -1.502188  0.069114551   -2.6583837    1.1561957   310687 
  476000   0.99101385   -2.6567531   -2.6567531   -1.5011625   0.06130263   -2.6567531    1.1555906   310681 
  477000   0.99272565   -2.6597634   -2.6597634   -1.5021581  0.059742701   -2.6597634    1.1576053   310676 
  478000   0.99278069   -2.6591955   -2.6591955   -1.5015036  0.056705335   -2.6591955    1.1576918   310670 
  479000   0.99049611   -2.6581386   -2.6581386   -1.5030885  0.067245911   -2.6581386    1.1550501   310664 
  480000    0.9929192    -2.659856    -2.659856   -1.5019617  0.065698874    -2.659856    1.1578943   310659 
  481000   0.99162402   -2.6590439   -2.6590439   -1.5026376  0.071551642   -2.6590439    1.1564063   310653 
  482000   0.99349936   -2.6611372   -2.6611372   -1.5025216  0.057191618   -2.6611372    1.1586157   310647 
  483000   0.99258666   -2.6611363   -2.6611363   -1.5035626  0.062884196   -2.6611363    1.1575736   310641 
  484000    0.9934526   -2.6616438   -2.6616438   -1.5030417   0.06412985   -2.6616438    1.1586022   310636 
  485000   0.99367986   -2.6628437   -2.6628437   -1.5039541  0.062818295   -2.6628437    1.1588896   310630 
  486000   0.99275797   -2.6619803   -2.6619803   -1.5041435  0.061907113   -2.6619803    1.1578368   310624 
  487000   0.99132907   -2.6608142   -2.6608142   -1.5046253  0.047573214   -2.6608142    1.1561889   310619 
  488000   0.99062379   -2.6614766   -2.6614766    -1.506088  0.066490724   -2.6614766    1.1553886   310613 
  489000   0.99121364   -2.6628082   -2.6628082   -1.5067092  0.070098303   -2.6628082    1.1560989   310607 
  490000   0.99460837   -2.6663706   -2.6663706   -1.5062899  0.064695748   -2.6663706    1.1600808   310601 
  491000   0.99239768   -2.6638569   -2.6638569    -1.506336  0.074049149   -2.6638569    1.1575209   310596 
  492000   0.99252674   -2.6623072   -2.6623072   -1.5046134  0.058377211   -2.6623072    1.1576938   310590 
  493000   0.99225074   -2.6622855   -2.6622855   -1.5048913  0.071830199   -2.6622855    1.1573942   310584 
  494000   0.99289859   -2.6644408   -2.6644408   -1.5062723  0.056202806   -2.6644408    1.1581686   310579 
  495000   0.99423456    -2.666701    -2.666701   -1.5069517  0.072656574    -2.666701    1.1597493   310573 
  496000    0.9941929    -2.666924    -2.666924   -1.5072009  0.076695678    -2.666924    1.1597231   310567 
  497000   0.99361381    -2.666046    -2.666046   -1.5069759  0.065037658    -2.666046      1.15907   310561 
  498000   0.99368183   -2.6666261   -2.6666261   -1.5074581  0.070432045   -2.6666261     1.159168   310556 
  499000   0.99489296   -2.6663249   -2.6663249   -1.5057216  0.074251751   -2.6663249    1.1606033   310550 
  500000   0.99475271    -2.668402    -2.668402   -1.5079399  0.061956725    -2.668402    1.1604621   310544 
  501000   0.99441768   -2.6683539   -2.6683539    -1.508264  0.061014196   -2.6683539    1.1600899   310539 
  502000   0.99279292   -2.6659844   -2.6659844   -1.5077676  0.074315049   -2.6659844    1.1582168   310533 
  503000   0.99561516   -2.6686754   -2.6686754   -1.5071436  0.071015385   -2.6686754    1.1615318   310527 
  504000   0.99724382   -2.6706032   -2.6706032   -1.5071489   0.06543201   -2.6706032    1.1634543   310521 
  505000   0.99471698   -2.6679187   -2.6679187   -1.5073937  0.068575047   -2.6679187     1.160525   310516 
  506000   0.99385402   -2.6665346   -2.6665346    -1.506994   0.06847961   -2.6665346    1.1595406   310510 
  507000   0.99213793    -2.664915    -2.664915   -1.5073542  0.070360408    -2.664915    1.1575608   310504 
  508000   0.99009398    -2.662872    -2.662872   -1.5076774  0.068263894    -2.662872    1.1551947   310499 
  509000   0.99192845    -2.665846    -2.665846   -1.5084886  0.062382475    -2.665846    1.1573574   310493 
  510000   0.99193504   -2.6661341   -2.6661341   -1.5087466  0.061691679   -2.6661341    1.1573875   310487 
  511000   0.99209684     -2.66649     -2.66649   -1.5088913  0.070777529     -2.66649    1.1575986   310481 
  512000   0.99209477   -2.6674346   -2.6674346   -1.5098197  0.054930246   -2.6674346    1.1576148   310476 
  513000   0.98870576   -2.6645483   -2.6645483   -1.5108655  0.064013896   -2.6645483    1.1536827   310470 
  514000   0.98996108   -2.6644927   -2.6644927   -1.5093229  0.063852346   -2.6644927    1.1551698   310464 
  515000   0.98873833   -2.6622845   -2.6622845   -1.5085229  0.069316934   -2.6622845    1.1537616   310459 
  516000   0.98906022   -2.6638069   -2.6638069   -1.5096474  0.063759089   -2.6638069    1.1541595   310453 
  517000   0.98827553   -2.6618966   -2.6618966   -1.5086304  0.067660049   -2.6618966    1.1532661   310447 
  518000    0.9891874   -2.6624506   -2.6624506   -1.5080981  0.061222331   -2.6624506    1.1543525   310441 
  519000   0.99098774   -2.6647254   -2.6647254   -1.5082532  0.065450918   -2.6647254    1.1564721   310436 
  520000   0.98937683   -2.6626744   -2.6626744   -1.5080599  0.054905618   -2.6626744    1.1546145   310430 
  521000   0.98998257   -2.6627091   -2.6627091   -1.5073654  0.060649437   -2.6627091    1.1553438   310424 
  522000   0.98949617   -2.6612059   -2.6612059   -1.5064112  0.065669081   -2.6612059    1.1547947   310419 
  523000   0.98999886   -2.6618858   -2.6618858   -1.5064821  0.063872844   -2.6618858    1.1554037   310413 
  524000   0.99067285   -2.6617877   -2.6617877    -1.505575  0.055480656   -2.6617877    1.1562127   310407 
  525000     0.991314   -2.6616197   -2.6616197   -1.5046364  0.068977937   -2.6616197    1.1569833   310401 
  526000   0.98950331   -2.6607537   -2.6607537   -1.5058651  0.067387415   -2.6607537    1.1548886   310396 
  527000   0.99032053   -2.6614657   -2.6614657   -1.5056009  0.049048774   -2.6614657    1.1558648   310390 
  528000   0.98922009   -2.6620327   -2.6620327     -1.50743  0.063284128   -2.6620327    1.1546027   310384 
  529000   0.99013578   -2.6627864   -2.6627864   -1.5070963  0.058496079   -2.6627864    1.1556901   310379 
  530000   0.99109522   -2.6635449   -2.6635449   -1.5067126  0.061186265   -2.6635449    1.1568323   310373 
  531000   0.98889624   -2.6615897   -2.6615897   -1.5073018  0.062526676   -2.6615897    1.1542879   310367 
  532000   0.98976682   -2.6626222   -2.6626222   -1.5072958  0.056618287   -2.6626222    1.1553264   310361 
  533000   0.98982967   -2.6645267   -2.6645267   -1.5091083  0.062643315   -2.6645267    1.1554184   310356 
  534000   0.98802912   -2.6626584   -2.6626584   -1.5093194   0.06085041   -2.6626584     1.153339   310350 
  535000   0.98874943   -2.6647452   -2.6647452   -1.5105431  0.063800834   -2.6647452    1.1542021   310344 
  536000   0.98614075    -2.663745    -2.663745   -1.5125695    0.0561747    -2.663745    1.1511754   310339 
  537000   0.98788685   -2.6636647   -2.6636647   -1.5104287  0.048131724   -2.6636647    1.1532361   310333 
  538000   0.98856212   -2.6626188   -2.6626188   -1.5085721   0.06926803   -2.6626188    1.1540467   310327 
  539000   0.98964372   -2.6653476   -2.6653476   -1.5100159  0.065422284   -2.6653476    1.1553317   310321 
  540000   0.98909317   -2.6636652   -2.6636652   -1.5089577   0.06968284   -2.6636652    1.1547075   310316 
  541000   0.99098864   -2.6652456   -2.6652456   -1.5083029  0.065860056   -2.6652456    1.1569427   310310 
  542000    0.9925951   -2.6670183   -2.6670183   -1.5081776  0.074043188   -2.6670183    1.1588406   310304 
  543000   0.99535335   -2.6698492   -2.6698492   -1.5077696  0.067737896   -2.6698492    1.1620796   310299 
  544000   0.99178665   -2.6660474   -2.6660474   -1.5081095  0.066056442   -2.6660474    1.1579378   310293 
  545000   0.99665001    -2.670595    -2.670595   -1.5069565  0.053180445    -2.670595    1.1636384   310287 
  546000   0.99242107   -2.6662988   -2.6662988   -1.5075755    0.0712958   -2.6662988    1.1587234   310281 
  547000   0.99131334   -2.6660179   -2.6660179   -1.5085692  0.072173317   -2.6660179    1.1574486   310276 
  548000    0.9929693   -2.6672259   -2.6672259   -1.5078213  0.063901533   -2.6672259    1.1594046   310270 
  549000   0.99245447   -2.6659845   -2.6659845   -1.5071587  0.087417038   -2.6659845    1.1588258   310264 
  550000   0.99278587   -2.6675612   -2.6675612   -1.5083297  0.062050852   -2.6675612    1.1592315   310259 
  551000   0.98945591   -2.6648751   -2.6648751   -1.5095095  0.073084333   -2.6648751    1.1553656   310253 
  552000   0.98744786   -2.6641148   -2.6641148   -1.5110717  0.068295888   -2.6641148    1.1530431   310247 
  553000   0.98994224    -2.665523    -2.665523   -1.5095449    0.0667503    -2.665523    1.1559782   310241 
  554000   0.99074792   -2.6663742   -2.6663742   -1.5094366  0.061885645   -2.6663742    1.1569376   310236 
  555000   0.98952365   -2.6656864   -2.6656864   -1.5101561  0.060933891   -2.6656864    1.1555303   310230 
  556000   0.98914493    -2.664842    -2.664842   -1.5097316  0.065208938    -2.664842    1.1551104   310224 
  557000   0.98912802   -2.6643939   -2.6643939   -1.5092847   0.05609238   -2.6643939    1.1551093   310219 
  558000   0.99089558     -2.66612     -2.66612   -1.5089242  0.058764992     -2.66612    1.1571958   310213 
  559000   0.99117002   -2.6653603   -2.6653603   -1.5078216  0.062850674   -2.6653603    1.1575387   310207 
  560000   0.98982198   -2.6651526   -2.6651526   -1.5091658  0.062699118   -2.6651526    1.1559868   310201 
  561000   0.98981755   -2.6645581   -2.6645581   -1.5085579  0.059869817   -2.6645581    1.1560002   310196 
  562000   0.98941284   -2.6642447   -2.6642447   -1.5086948   0.07060079   -2.6642447    1.1555499   310190 
  563000   0.98922052   -2.6641594   -2.6641594   -1.5088118  0.056231526   -2.6641594    1.1553477   310184 
  564000   0.98874572   -2.6642212   -2.6642212   -1.5094094  0.071122338   -2.6642212    1.1548117   310179 
  565000   0.98911225   -2.6645895   -2.6645895   -1.5093273  0.060129212   -2.6645895    1.1552622   310173 
  566000   0.98769998   -2.6631667   -2.6631667   -1.5095317  0.073665266   -2.6631667     1.153635   310167 
  567000   0.98955617   -2.6652846   -2.6652846   -1.5094592  0.061060553   -2.6652846    1.1558254   310161 
  568000   0.98877632   -2.6639979   -2.6639979   -1.5090648  0.064116415   -2.6639979    1.1549331   310156 
  569000    0.9895391   -2.6636133   -2.6636133   -1.5077669  0.061427963   -2.6636133    1.1558464   310150 
  570000    0.9868725   -2.6623029   -2.6623029   -1.5095489  0.068081535   -2.6623029     1.152754   310144 
  571000   0.98822123   -2.6637517   -2.6637517   -1.5094037  0.060241164   -2.6637517     1.154348   310139 
  572000   0.99004068   -2.6650317   -2.6650317    -1.508536  0.055175877   -2.6650317    1.1564957   310133 
  573000   0.98908728   -2.6632795   -2.6632795   -1.5078751  0.058476842   -2.6632795    1.1554044   310127 
  574000   0.99155613   -2.6656014   -2.6656014   -1.5072907  0.072041062   -2.6656014    1.1583108   310121 
  575000   0.99238319   -2.6662816   -2.6662816    -1.506986  0.061023121   -2.6662816    1.1592956   310116 
  576000   0.99034146   -2.6654543   -2.6654543   -1.5085215  0.063906416   -2.6654543    1.1569329   310110 
  577000   0.99056559   -2.6655068   -2.6655068   -1.5082898  0.059271121   -2.6655068    1.1572171   310104 
  578000   0.99296964   -2.6689071   -2.6689071   -1.5088628  0.065152434   -2.6689071    1.1600443   310099 
  579000   0.99003179   -2.6653228   -2.6653228   -1.5086883  0.054503753   -2.6653228    1.1566345   310093 
  580000   0.98840638   -2.6636771   -2.6636771   -1.5089192  0.064536499   -2.6636771    1.1547579   310087 
  581000   0.98997808   -2.6646609   -2.6646609   -1.5080444  0.064341653   -2.6646609    1.1566165   310081 
  582000   0.98798576   -2.6651194   -2.6651194    -1.510812  0.050821547   -2.6651194    1.1543074   310076 
  583000   0.98991534   -2.6667492   -2.6667492    -1.510165  0.054760633   -2.6667492    1.1565842   310070 
  584000   0.98893867   -2.6661337   -2.6661337   -1.5106683  0.056357887   -2.6661337    1.1554655   310064 
  585000   0.98749942   -2.6646499   -2.6646499   -1.5108474  0.052404855   -2.6646499    1.1538025   310059 
  586000    0.9869248   -2.6634069   -2.6634069   -1.5102535   0.06102518   -2.6634069    1.1531534   310053 
  587000   0.98960579   -2.6663438   -2.6663438   -1.5100354  0.061172478   -2.6663438    1.1563083   310047 
  588000   0.98814617   -2.6646555   -2.6646555   -1.5100303  0.064089884   -2.6646555    1.1546252   310041 
  589000   0.99020497   -2.6665019   -2.6665019   -1.5094524  0.062146721   -2.6665019    1.1570495   310036 
  590000   0.98821071   -2.6655581   -2.6655581   -1.5108165  0.059682959   -2.6655581    1.1547416   310030 
  591000    0.9906784   -2.6671678   -2.6671678   -1.5095203  0.065489326   -2.6671678    1.1576475   310024 
  592000   0.99126122   -2.6659772   -2.6659772     -1.50763  0.058073815   -2.6659772    1.1583472   310019 
  593000   0.99237397   -2.6670413   -2.6670413   -1.5073713  0.058190881   -2.6670413      1.15967   310013 
  594000    0.9918626   -2.6660491   -2.6660491   -1.5069542  0.062511889   -2.6660491    1.1590949   310007 
  595000   0.98992752   -2.6640216   -2.6640216   -1.5071657  0.069966571   -2.6640216    1.1568559   310001 
  596000     0.989734   -2.6649319   -2.6649319   -1.5082835  0.073347231   -2.6649319    1.1566484   309996 
  597000   0.98875526   -2.6656046   -2.6656046   -1.5100776   0.05891672   -2.6656046     1.155527   309990 
  598000   0.99007523   -2.6687379   -2.6687379   -1.5116459  0.063434797   -2.6687379     1.157092   309984 
  599000   0.98853979   -2.6662964   -2.6662964   -1.5109802  0.079938832   -2.6662964    1.1553162   309979 
  600000   0.98799575   -2.6667368   -2.6667368   -1.5120341  0.065149593   -2.6667368    1.1547027   309973 
  601000   0.98889375   -2.6668893   -2.6668893   -1.5111147  0.058159693   -2.6668893    1.1557746   309967 
  602000   0.98835651    -2.666126    -2.666126   -1.5109569  0.063616872    -2.666126     1.155169   309961 
  603000   0.98702427   -2.6640981   -2.6640981   -1.5104675  0.054944405   -2.6640981    1.1536306   309956 
  604000     0.987713   -2.6652935   -2.6652935   -1.5108356  0.062871722   -2.6652935    1.1544579   309950 
  605000   0.98673366   -2.6641781   -2.6641781   -1.5108426  0.058835471   -2.6641781    1.1533355   309944 
  606000    0.9867381   -2.6645807   -2.6645807   -1.5112214  0.065626829   -2.6645807    1.1533593   309939 
  607000   0.98959402   -2.6674747   -2.6674747   -1.5107548  0.068099564   -2.6674747    1.1567199   309933 
  608000   0.98832635   -2.6661908   -2.6661908   -1.5109303  0.066330932   -2.6661908    1.1552605   309927 
  609000   0.98832802   -2.6647303   -2.6647303   -1.5094455  0.066838852   -2.6647303    1.1552848   309921 
  610000   0.98921293   -2.6661104   -2.6661104   -1.5097725  0.077232007   -2.6661104    1.1563379   309916 
  611000   0.98636006   -2.6630292   -2.6630292   -1.5100039   0.06102268   -2.6630292    1.1530253   309910 
  612000   0.98814469   -2.6631867   -2.6631867   -1.5080528  0.064806768   -2.6631867    1.1551339   309904 
  613000   0.98741025   -2.6620037   -2.6620037   -1.5077097  0.065801765   -2.6620037     1.154294   309899 
  614000   0.98666949   -2.6609777   -2.6609777   -1.5075274  0.057930508   -2.6609777    1.1534503   309893 
  615000   0.99028428   -2.6651539   -2.6651539   -1.5074553  0.070215042   -2.6651539    1.1576986   309887 
  616000   0.99176002    -2.667735    -2.667735   -1.5082888  0.067617267    -2.667735    1.1594462   309881 
  617000   0.98918786    -2.664157    -2.664157   -1.5076991  0.060303325    -2.664157    1.1564578   309876 
  618000   0.98996085   -2.6663942   -2.6663942   -1.5090102  0.063817471   -2.6663942    1.1573839   309870 
  619000   0.98887628   -2.6648037   -2.6648037   -1.5086654  0.060822772   -2.6648037    1.1561383   309864 
  620000   0.98915244   -2.6648948   -2.6648948   -1.5084149  0.058493335   -2.6648948    1.1564799   309859 
  621000   0.98894689   -2.6640811   -2.6640811   -1.5078192  0.052839126   -2.6640811    1.1562619   309853 
  622000   0.98716528   -2.6624087   -2.6624087   -1.5082075  0.053228806   -2.6624087    1.1542013   309847 
  623000    0.9855065   -2.6624339   -2.6624339   -1.5101498  0.062398482   -2.6624339    1.1522841   309841 
  624000   0.98870681   -2.6659936   -2.6659936    -1.509949  0.062863268   -2.6659936    1.1560447   309836 
  625000   0.98620765   -2.6635412   -2.6635412   -1.5103963  0.061763916   -2.6635412    1.1531449   309830 
  626000   0.98658857   -2.6643664   -2.6643664   -1.5107538  0.051629502   -2.6643664    1.1536126   309824 
  627000   0.98598614   -2.6651486   -2.6651486   -1.5122218  0.055080519   -2.6651486    1.1529268   309819 
  628000   0.98796302   -2.6677269   -2.6677269   -1.5124662  0.066994327   -2.6677269    1.1552607   309813 
  629000   0.98423712   -2.6649437   -2.6649437   -1.5140175  0.065892171   -2.6649437    1.1509262   309807 
  630000   0.98633769   -2.6661912   -2.6661912   -1.5127864  0.069156074   -2.6661912    1.1534049   309801 
  631000   0.98674842   -2.6668592   -2.6668592   -1.5129554  0.058346635   -2.6668592    1.1539038   309796 
  632000   0.98674985   -2.6674445   -2.6674445   -1.5135167  0.051488644   -2.6674445    1.1539278   309790 
  633000   0.98659695   -2.6659887   -2.6659887   -1.5122174  0.065231139   -2.6659887    1.1537713   309784 
  634000   0.98839121   -2.6690965   -2.6690965   -1.5132082  0.063894553   -2.6690965    1.1558883   309779 
  635000   0.98654066   -2.6666326   -2.6666326   -1.5128861  0.057236515   -2.6666326    1.1537465   309773 
  636000   0.98683787   -2.6683408   -2.6683408   -1.5142243  0.061469357   -2.6683408    1.1541164   309767 
  637000   0.98709265   -2.6690376   -2.6690376   -1.5146009  0.072459259   -2.6690376    1.1544368   309761 
  638000   0.98818825   -2.6703673   -2.6703673   -1.5146305  0.066523704   -2.6703673    1.1557367   309756 
  639000   0.98637229   -2.6680379   -2.6680379   -1.5144026  0.065514848   -2.6680379    1.1536352   309750 
  640000   0.98609442   -2.6681315   -2.6681315   -1.5147989  0.061831016   -2.6681315    1.1533326   309744 
  641000   0.98614289   -2.6693988   -2.6693988   -1.5159909  0.058639428   -2.6693988    1.1534079   309739 
  642000   0.98687006   -2.6694233   -2.6694233   -1.5151425  0.066442387   -2.6694233    1.1542808   309733 
  643000   0.98961459   -2.6717087   -2.6717087   -1.5141954  0.064382771   -2.6717087    1.1575133   309727 
  644000   0.98615969   -2.6687192   -2.6687192   -1.5152246  0.058889666   -2.6687192    1.1534946   309721 
  645000   0.98548164   -2.6690768   -2.6690768   -1.5163567  0.070843942   -2.6690768    1.1527201   309716 
  646000   0.98789536   -2.6719655   -2.6719655   -1.5163997  0.054538835   -2.6719655    1.1555658   309710 
  647000   0.98845905   -2.6731998   -2.6731998   -1.5169523  0.064523423   -2.6731998    1.1562476   309704 
  648000   0.98520673   -2.6707356   -2.6707356   -1.5182738  0.061827548   -2.6707356    1.1524618   309699 
  649000   0.98771217   -2.6726739   -2.6726739   -1.5172589  0.061975034   -2.6726739    1.1554149   309693 
  650000   0.98718719   -2.6715711   -2.6715711   -1.5167479  0.075183696   -2.6715711    1.1548232   309687 
  651000    0.9874579    -2.672092    -2.672092   -1.5169297  0.049699701    -2.672092    1.1551623   309681 
  652000   0.98510128   -2.6698452   -2.6698452   -1.5174212  0.062169732   -2.6698452     1.152424   309676 
  653000   0.98640082    -2.670388    -2.670388   -1.5164214  0.069577983    -2.670388    1.1539666   309670 
  654000   0.98754752   -2.6695432   -2.6695432   -1.5142127  0.060147486   -2.6695432    1.1553305   309664 
  655000   0.98707007   -2.6694229   -2.6694229   -1.5146323  0.063328294   -2.6694229    1.1547906   309659 
  656000   0.98649644   -2.6685578   -2.6685578   -1.5144159  0.062984262   -2.6685578    1.1541419   309653 
  657000   0.98529892   -2.6680573   -2.6680573   -1.5152941  0.072062632   -2.6680573    1.1527632   309647 
  658000    0.9832937   -2.6688818   -2.6688818   -1.5184423  0.052127677   -2.6688818    1.1504394   309641 
  659000   0.98272594    -2.667226    -2.667226   -1.5174323  0.065550374    -2.667226    1.1497937   309636 
  660000   0.98311659   -2.6687002   -2.6687002   -1.5184271  0.059383603   -2.6687002    1.1502731   309630 
  661000   0.98343904   -2.6679047   -2.6679047   -1.5172321  0.058426728   -2.6679047    1.1506727   309624 
  662000   0.98445883   -2.6676718   -2.6676718   -1.5157874  0.064520533   -2.6676718    1.1518845   309619 
[...]
19832000   0.53021406   -2.1251277   -2.1251277   -1.1650747  0.049711847   -2.1251277     0.960053   200076 
19833000   0.52773327   -2.1212932   -2.1212932   -1.1657034  0.054056057   -2.1212932   0.95558971   200070 
19834000   0.52793549   -2.1206906   -2.1206906   -1.1647061  0.052964384   -2.1206906   0.95598456   200064 
19835000   0.52919995    -2.120121    -2.120121   -1.1618228  0.052194986    -2.120121   0.95829819   200059 
19836000   0.52660348   -2.1169371   -2.1169371   -1.1633121  0.051609549   -2.1169371   0.95362499   200053 
19837000   0.52734213   -2.1177167   -2.1177167   -1.1627255   0.05689384   -2.1177167   0.95499124   200047 
19838000    0.5270593   -2.1165643   -2.1165643   -1.1620566  0.037168632   -2.1165643   0.95450769   200041 
19839000   0.52612817   -2.1156093   -2.1156093   -1.1627641  0.047995751   -2.1156093   0.95284522   200036 
19840000   0.52761067   -2.1166931   -2.1166931   -1.1611344  0.057919694   -2.1166931   0.95555877   200030 
19841000   0.52666833   -2.1147491   -2.1147491   -1.1608685  0.054340369   -2.1147491   0.95388069   200024 
19842000   0.52765111   -2.1151099   -2.1151099   -1.1594253  0.038967867   -2.1151099   0.95568456   200019 
19843000   0.52767496   -2.1143483   -2.1143483   -1.1585919  0.041540007   -2.1143483   0.95575642   200013 
19844000   0.52816484   -2.1152538   -2.1152538   -1.1585814  0.048601738   -2.1152538   0.95667243   200007 
19845000   0.52817997   -2.1136371   -2.1136371   -1.1569085  0.047817014   -2.1136371   0.95672852   200001 
19846000   0.52821403   -2.1133069   -2.1133069   -1.1564928  0.039409768   -2.1133069   0.95681415   199996 
19847000   0.52921324   -2.1138574   -2.1138574   -1.1552045  0.057886747   -2.1138574   0.95865289   199990 
19848000   0.52774741   -2.1115207   -2.1115207   -1.1554944  0.053047078   -2.1115207   0.95602628   199984 
19849000   0.52846266   -2.1124521   -2.1124521   -1.1551062  0.054575634   -2.1124521    0.9573459   199979 
19850000   0.52747815   -2.1121033   -2.1121033   -1.1565122  0.057777148   -2.1121033   0.95559105   199973 
19851000   0.52834552   -2.1135172   -2.1135172   -1.1563261  0.052188715   -2.1135172   0.95719112   199967 
19852000   0.52901631   -2.1157764   -2.1157764   -1.1573412  0.040264374   -2.1157764   0.95843513   199961 
19853000    0.5290704   -2.1178273   -2.1178273   -1.1592702  0.059336816   -2.1178273   0.95855709   199956 
19854000   0.52843212   -2.1174033   -2.1174033   -1.1599739  0.049904859   -2.1174033   0.95742941   199950 
19855000    0.5271148    -2.114859    -2.114859   -1.1597877   0.04392582    -2.114859    0.9550713   199944 
19856000   0.52611863   -2.1146149   -2.1146149   -1.1613247  0.054768634   -2.1146149   0.95329019   199939 
19857000   0.52842108    -2.116856    -2.116856   -1.1593652  0.042485743    -2.116856   0.95749082   199933 
19858000   0.53026064   -2.1196614   -2.1196614   -1.1588085  0.056296898   -2.1196614    0.9608529   199927 
19859000   0.52951511   -2.1172674   -2.1172674   -1.1577366  0.063223095   -2.1172674   0.95953077   199921 
19860000   0.53115457   -2.1200189   -2.1200189   -1.1574933  0.067072166   -2.1200189    0.9625257   199916 
19861000   0.52974691   -2.1192371   -2.1192371   -1.1592335  0.056117655   -2.1192371   0.96000364   199910 
19862000   0.52902458   -2.1179257   -2.1179257   -1.1592023  0.054076557   -2.1179257   0.95872342   199904 
19863000   0.52933367   -2.1176317   -2.1176317   -1.1583241  0.053006053   -2.1176317   0.95930756   199899 
19864000      0.52994   -2.1192459   -2.1192459   -1.1588106  0.051680257   -2.1192459   0.96043523   199893 
19865000   0.52754427   -2.1143611   -2.1143611   -1.1582391  0.057399377   -2.1143611   0.95612204   199887 
19866000    0.5256345   -2.1134292   -2.1134292   -1.1607399  0.057527974   -2.1134292   0.95268937   199881 
19867000   0.52635268   -2.1141271   -2.1141271   -1.1601122  0.036218388   -2.1141271   0.95401489   199876 
19868000   0.52679206   -2.1156626   -2.1156626   -1.1608226  0.057420198   -2.1156626   0.95483993   199870 
19869000   0.52530986   -2.1130578   -2.1130578   -1.1608759  0.046516992   -2.1130578   0.95218194   199864 
19870000   0.52643091    -2.112417    -2.112417   -1.1581792   0.05017618    -2.112417   0.95423785   199859 
19871000   0.52626086   -2.1138972   -2.1138972   -1.1599389  0.048856591   -2.1138972   0.95395824   199853 
19872000   0.52676641   -2.1143629   -2.1143629   -1.1594596  0.054085244   -2.1143629   0.95490333   199847 
19873000   0.52715137   -2.1140521   -2.1140521   -1.1584222  0.042164738   -2.1140521   0.95562985   199841 
19874000   0.52678139   -2.1132061   -2.1132061   -1.1582231  0.049384255   -2.1132061   0.95498305   199836 
19875000   0.52616341   -2.1132458   -2.1132458   -1.1593544  0.060885344   -2.1132458   0.95389136   199830 
19876000   0.52781932   -2.1155537   -2.1155537   -1.1586315   0.05176804   -2.1155537   0.95692213   199824 
19877000   0.52733355   -2.1153759   -2.1153759   -1.1593106   0.04984033   -2.1153759   0.95606537   199819 
19878000   0.52729328   -2.1166989   -2.1166989   -1.1606778  0.053409276   -2.1166989   0.95602106   199813 
19879000   0.52576876   -2.1158641   -2.1158641   -1.1625785  0.059794436   -2.1158641   0.95328562   199807 
19880000   0.52395445   -2.1141574   -2.1141574   -1.1641328  0.049446405   -2.1141574   0.95002457   199801 
19881000   0.52575545   -2.1174533   -2.1174533   -1.1641394  0.041727579   -2.1174533   0.95331398   199796 
19882000   0.52686341   -2.1180581   -2.1180581   -1.1627065   0.06138381   -2.1180581   0.95535165   199790 
19883000   0.52737665   -2.1202905   -2.1202905   -1.1639795  0.052803491   -2.1202905   0.95631101   199784 
19884000   0.52668555    -2.117883    -2.117883   -1.1628013  0.053587882    -2.117883   0.95508172   199779 
19885000   0.52697662   -2.1187689   -2.1187689   -1.1631307  0.046095791   -2.1187689   0.95563825   199773 
19886000   0.52601882    -2.119393    -2.119393    -1.165463  0.056526788    -2.119393   0.95392998   199767 
19887000   0.52668762   -2.1202292   -2.1202292   -1.1650577  0.048444626   -2.1202292   0.95517154   199761 
19888000   0.52501231   -2.1182819   -2.1182819   -1.1661248  0.039002744   -2.1182819   0.95215711   199756 
19889000   0.52747298   -2.1202302   -2.1202302   -1.1635817  0.043083878   -2.1202302    0.9566485   199750 
19890000    0.5271134   -2.1211382   -2.1211382   -1.1651131  0.048271663   -2.1211382   0.95602507   199744 
19891000   0.52775785   -2.1200021   -2.1200021   -1.1627843  0.053001573   -2.1200021   0.95721787   199739 
19892000   0.52602098   -2.1179874   -2.1179874   -1.1638911  0.047089721   -2.1179874   0.95409629   199733 
19893000   0.52705974   -2.1208255   -2.1208255   -1.1648164  0.052869625   -2.1208255    0.9560091   199727 
19894000   0.52683066   -2.1211956   -2.1211956   -1.1655733  0.053270551   -2.1211956    0.9556223   199721 
19895000   0.52669447   -2.1199613   -2.1199613   -1.1645621    0.0529958   -2.1199613   0.95539918   199716 
19896000   0.52575815    -2.120707    -2.120707   -1.1669776  0.054162826    -2.120707    0.9537294   199710 
19897000    0.5268041    -2.120095    -2.120095   -1.1644395  0.046945582    -2.120095   0.95565547   199704 
19898000   0.52586914   -2.1193466   -2.1193466   -1.1653633  0.055689697   -2.1193466   0.95398327   199699 
19899000   0.52747492   -2.1202504   -2.1202504   -1.1633253  0.047161863   -2.1202504   0.95692508   199693 
19900000   0.52765321   -2.1203217   -2.1203217   -1.1630444  0.056547713   -2.1203217   0.95727729   199687 
19901000   0.52508016   -2.1158853   -2.1158853   -1.1632475  0.044819027   -2.1158853   0.95263785   199681 
19902000   0.52529002   -2.1206398   -2.1206398   -1.1675973  0.050019527   -2.1206398   0.95304245   199676 
19903000   0.52578176   -2.1191076   -2.1191076   -1.1651443   0.03613226   -2.1191076   0.95396329   199670 
19904000   0.52612989   -2.1187949   -2.1187949   -1.1641713  0.031587585   -2.1187949   0.95462362   199664 
19905000   0.52539395   -2.1178161   -2.1178161   -1.1645039  0.059867172   -2.1178161   0.95331217   199659 
19906000   0.52626318   -2.1185583   -2.1185583   -1.1636402  0.053637781   -2.1185583   0.95491807   199653 
19907000   0.52652861   -2.1191978   -2.1191978   -1.1637694  0.049951321   -2.1191978   0.95542841   199647 
19908000   0.52588351   -2.1192562   -2.1192562   -1.1649697  0.062235598   -2.1192562   0.95428651   199641 
19909000   0.52553305   -2.1173548   -2.1173548   -1.1636804  0.048062686   -2.1173548   0.95367443   199636 
19910000   0.52498437   -2.1144648   -2.1144648   -1.1617574  0.051270511   -2.1144648   0.95270738   199630 
19911000   0.52699272   -2.1158969   -2.1158969   -1.1595162   0.04881987   -2.1158969   0.95638075   199624 
19912000   0.52786243    -2.116651    -2.116651   -1.1586679  0.050963777    -2.116651   0.95798309   199619 
19913000    0.5267672   -2.1160093   -2.1160093   -1.1599851  0.047810411   -2.1160093   0.95602415   199613 
19914000   0.52535855   -2.1137921   -2.1137921   -1.1602959   0.04605506   -2.1137921   0.95349628   199607 
19915000   0.52529631   -2.1134949   -2.1134949   -1.1600829  0.054306617   -2.1134949   0.95341198   199601 
19916000   0.52444567   -2.1132647   -2.1132647   -1.1613728  0.058760517   -2.1132647   0.95189191   199596 
19917000   0.52582432    -2.114969    -2.114969   -1.1605461  0.045354321    -2.114969   0.95442291   199590 
19918000   0.52433436   -2.1113604   -2.1113604   -1.1596133  0.058480256   -2.1113604   0.95174711   199584 
19919000   0.52665671   -2.1137176   -2.1137176   -1.1577311  0.049095456   -2.1137176   0.95598646   199579 
19920000   0.52573404   -2.1141735   -2.1141735   -1.1598332  0.046797408   -2.1141735   0.95434032   199573 
19921000   0.52610679   -2.1140376   -2.1140376   -1.1589919  0.038611056   -2.1140376   0.95504568   199567 
19922000   0.52769867   -2.1163687   -2.1163687   -1.1584045  0.044688673   -2.1163687   0.95796422   199561 
19923000    0.5262393   -2.1121213   -2.1121213   -1.1567824  0.053378667   -2.1121213   0.95533887   199556 
19924000   0.52591564   -2.1133998   -2.1133998   -1.1586198  0.051950354   -2.1133998   0.95478001   199550 
19925000   0.52503527   -2.1137612   -2.1137612   -1.1605508  0.047988171   -2.1137612   0.95321039   199544 
19926000   0.52376917   -2.1131026   -2.1131026    -1.162167   0.04794987   -2.1131026   0.95093559   199539 
19927000   0.52646336    -2.115095    -2.115095   -1.1592392  0.053233672    -2.115095   0.95585581   199533 
19928000   0.52684389   -2.1149535   -2.1149535   -1.1583781   0.06340338   -2.1149535   0.95657547   199527 
19929000   0.52645222   -2.1163961   -2.1163961    -1.160503  0.050239741   -2.1163961   0.95589307   199521 
19930000   0.52500731   -2.1175897   -2.1175897   -1.1642963  0.059256487   -2.1175897    0.9532934   199516 
19931000   0.52369784   -2.1143745   -2.1143745   -1.1634302  0.063690028   -2.1143745   0.95094429   199510 
19932000   0.52532566   -2.1161817   -2.1161817   -1.1622529  0.042162404   -2.1161817   0.95392883   199504 
19933000   0.52592885   -2.1169841   -2.1169841    -1.161936  0.056934961   -2.1169841   0.95504808   199499 
19934000   0.52557933   -2.1165099   -2.1165099   -1.1620678  0.047435972   -2.1165099   0.95444208   199493 
19935000   0.52520964   -2.1158531   -2.1158531   -1.1620537  0.050295023   -2.1158531   0.95379942   199487 
19936000   0.52557112   -2.1169334   -2.1169334   -1.1624488  0.047725297   -2.1169334    0.9544846   199481 
19937000   0.52492176   -2.1152232   -2.1152232    -1.161894  0.052151153   -2.1152232   0.95332919   199476 
19938000   0.52633694   -2.1189395   -2.1189395   -1.1630114  0.044861041   -2.1189395   0.95592809   199470 
19939000   0.52547885   -2.1168713   -2.1168713    -1.162473  0.051470115   -2.1168713   0.95439836   199464 
19940000   0.52682429   -2.1180192   -2.1180192   -1.1611532  0.053961016   -2.1180192   0.95686599   199459 
19941000   0.52622024   -2.1168621   -2.1168621   -1.1610645  0.052777786   -2.1168621   0.95579761   199453 
19942000   0.52520602   -2.1157431   -2.1157431   -1.1617589  0.063871968   -2.1157431   0.95398414   199447 
19943000    0.5249597    -2.115718    -2.115718   -1.1621526   0.05292239    -2.115718    0.9535654   199441 
19944000   0.52630726   -2.1180486   -2.1180486   -1.1620114  0.037424918   -2.1180486   0.95603715   199436 
19945000   0.52474204   -2.1138074   -2.1138074   -1.1605848  0.049199723   -2.1138074    0.9532226   199430 
19946000   0.52625432   -2.1179733   -2.1179733   -1.1619748  0.032566662   -2.1179733   0.95599851   199424 
19947000   0.52525812   -2.1148274   -2.1148274   -1.1606146  0.056609521   -2.1148274   0.95421273   199419 
19948000   0.52560551   -2.1152195   -2.1152195    -1.160347   0.05351331   -2.1152195   0.95487254   199413 
19949000   0.52579508   -2.1140632   -2.1140632   -1.1588175  0.047086558   -2.1140632   0.95524568   199407 
19950000   0.52568936   -2.1138539   -2.1138539   -1.1587715  0.044293834   -2.1138539   0.95508235   199401 
19951000   0.52530989   -2.1124684   -2.1124684   -1.1580516  0.043700515   -2.1124684   0.95441686   199396 
19952000   0.52568728   -2.1127592   -2.1127592   -1.1576279  0.055282432   -2.1127592   0.95513125   199390 
19953000   0.52551442   -2.1126921   -2.1126921   -1.1578462  0.045940429   -2.1126921   0.95484593   199384 
19954000   0.52571456   -2.1142113   -2.1142113   -1.1589778   0.05043921   -2.1142113   0.95523353   199379 
19955000   0.52505579   -2.1114403   -2.1114403    -1.157375  0.045741622   -2.1114403   0.95406525   199373 
19956000   0.52513899   -2.1097316   -2.1097316   -1.1554864  0.053802157   -2.1097316   0.95424513   199367 
19957000   0.52536054   -2.1096805   -2.1096805   -1.1550041  0.060131949   -2.1096805   0.95467645   199361 
19958000    0.5268895   -2.1141251   -2.1141251   -1.1566462  0.053203563   -2.1141251   0.95747886   199356 
19959000   0.52470453   -2.1109552   -2.1109552   -1.1574182  0.055368118   -2.1109552   0.95353698   199350 
19960000   0.52548656   -2.1121825   -2.1121825   -1.1571956  0.054364995   -2.1121825   0.95498689   199344 
19961000   0.52556701   -2.1090123   -2.1090123   -1.1538552  0.052458433   -2.1090123   0.95515705   199339 
19962000   0.52425065   -2.1079274   -2.1079274    -1.155134  0.069307114   -2.1079274   0.95279341   199333 
19963000   0.52403688   -2.1072064   -2.1072064   -1.1547728  0.049803528   -2.1072064   0.95243356   199327 
19964000   0.52519357   -2.1105564   -2.1105564   -1.1559918  0.051875702   -2.1105564   0.95456456   199321 
19965000   0.52371742   -2.1085141   -2.1085141   -1.1566087  0.065049304   -2.1085141   0.95190547   199316 
19966000   0.52578927   -2.1102146   -2.1102146   -1.1545146  0.057727135   -2.1102146   0.95570002   199310 
19967000    0.5242554   -2.1097407   -2.1097407      -1.1568   0.05262431   -2.1097407   0.95294067   199304 
19968000   0.52626179   -2.1125826   -2.1125826   -1.1559709  0.043712579   -2.1125826    0.9566117   199299 
19969000   0.52409407   -2.1104732   -2.1104732   -1.1577732  0.044909847   -2.1104732   0.95269999   199293 
19970000   0.52523023   -2.1130228   -2.1130228   -1.1582287   0.05376328   -2.1130228   0.95479406   199287 
19971000   0.52597751   -2.1130543   -2.1130543    -1.156873  0.044355833   -2.1130543    0.9561813   199281 
19972000   0.52622337   -2.1111469   -2.1111469   -1.1544946  0.057318737   -2.1111469   0.95665226   199276 
19973000   0.52395841    -2.109193    -2.109193   -1.1566296  0.052635808    -2.109193   0.95256334   199270 
19974000   0.52556567   -2.1112503   -2.1112503   -1.1557362  0.051793385   -2.1112503   0.95551411   199264 
19975000   0.52496565    -2.111428    -2.111428   -1.1569809  0.051094108    -2.111428   0.95444719   199259 
19976000   0.52547026   -2.1116129   -2.1116129   -1.1562195  0.057208547   -2.1116129    0.9553934   199253 
19977000   0.52434663   -2.1114559   -2.1114559   -1.1580767  0.045062299   -2.1114559   0.95337916   199247 
19978000   0.52273747   -2.1090971   -2.1090971   -1.1586151  0.047542452   -2.1090971   0.95048197   199241 
19979000   0.52443086   -2.1130266   -2.1130266   -1.1594416  0.049527236   -2.1130266   0.95358495   199236 
19980000   0.52456793    -2.113696    -2.113696   -1.1598331  0.053713135    -2.113696   0.95386292   199230 
19981000   0.52525513   -2.1123723   -2.1123723   -1.1572311  0.045883569   -2.1123723   0.95514128   199224 
19982000   0.52502403   -2.1118908   -2.1118908   -1.1571458   0.04887827   -2.1118908     0.954745   199219 
19983000   0.52420373   -2.1128463   -2.1128463   -1.1595643  0.063410683   -2.1128463   0.95328201   199213 
19984000    0.5245507   -2.1130408   -2.1130408    -1.159099  0.045140323   -2.1130408   0.95394171   199207 
19985000   0.52570446   -2.1117629   -2.1117629   -1.1556941  0.052071562   -2.1117629   0.95606873   199201 
19986000   0.52488091   -2.1106574   -2.1106574   -1.1560624   0.05661607   -2.1106574   0.95459494   199196 
19987000   0.52781262   -2.1159895   -2.1159895   -1.1560338  0.044199889   -2.1159895   0.95995573   199190 
19988000   0.52685293   -2.1127914   -2.1127914   -1.1545522  0.049764576   -2.1127914   0.95823917   199184 
19989000   0.52442586   -2.1126065   -2.1126065   -1.1587578  0.047034962   -2.1126065   0.95384875   199179 
19990000    0.5240546   -2.1127346   -2.1127346   -1.1595324  0.046785846   -2.1127346   0.95320221   199173 
19991000    0.5235885   -2.1099363   -2.1099363   -1.1575531  0.048431912   -2.1099363   0.95238311   199167 
19992000    0.5224688   -2.1089842   -2.1089842   -1.1586091  0.049812039   -2.1089842   0.95037506   199161 
19993000     0.523263   -2.1108067   -2.1108067   -1.1589631  0.049692155   -2.1108067   0.95184361   199156 
19994000   0.52361921   -2.1105025   -2.1105025   -1.1579822  0.052288352   -2.1105025   0.95252027   199150 
19995000   0.52500609   -2.1108561   -2.1108561   -1.1557842   0.05224291   -2.1108561   0.95507193   199144 
19996000   0.52511368   -2.1112547   -2.1112547    -1.155963  0.049221259   -2.1112547   0.95529163   199139 
19997000   0.52507915   -2.1103789   -2.1103789   -1.1551213  0.036494697   -2.1103789    0.9552576   199133 
19998000   0.52438069   -2.1110161   -2.1110161   -1.1570005  0.046030191   -2.1110161   0.95401566   199127 
19999000   0.52317154   -2.1068869   -2.1068869   -1.1550424  0.050450649   -2.1068869   0.95184451   199121 
20000000   0.52285766   -2.1102946   -2.1102946   -1.1589973  0.041319512   -2.1102946   0.95129734   199116 
Loop time of 23568.4 on 288 procs for 20000000 steps with 199116 atoms

Performance: 366592.696 tau/day, 848.594 timesteps/s
91.8% CPU use with 288 MPI tasks x 1 OpenMP threads

MPI task timing breakdown:
Section |  min time  |  avg time  |  max time  |%varavg|  %CPU | %total
-----------------------------------------------------------------------
Pair    | 729.54     | 3748.3     | 5287.7     |1583.1 |  93.9 | 15.90
Bond    | 12.496     | 13.356     | 14.892     |  10.3 | 100.0 |  0.06
Neigh   | 953.74     | 3470.2     | 4682       |1320.2 |  97.7 | 14.72
Comm    | 5280.4     | 9445.8     | 12971      |1646.8 |  90.8 | 40.08
Output  | 1893.3     | 1898       | 1904.3     |   9.7 |  86.1 |  8.05
Modify  | 3296       | 4694       | 9002.9     |1754.2 |  91.0 | 19.92
Other   |            | 298.7      |            |       |       |  1.27

Nlocal:        691.375 ave        1667 max         184 min
Histogram: 11 6 60 156 43 6 3 1 1 1
Nghost:        3761.28 ave        6385 max         670 min
Histogram: 34 15 15 19 24 34 37 48 52 10
Neighs:        12033.0 ave       21052 max        1012 min
Histogram: 40 5 2 14 36 56 53 36 31 15

Total # of neighbors = 3465497
Ave neighs/atom = 17.404413
Ave special neighs/atom = 0.0000000
Neighbor list builds = 2057143
Dangerous builds = 1925715

Total wall time: 6:32:52
