LAMMPS (3 Mar 2020)
  using 1 OpenMP thread(s) per MPI task
Created orthogonal box = (0 0 0) to (40 40 40)
  2 by 2 by 4 MPI processor grid
Lattice spacing in x,y,z = 1 1 1
Created 64000 atoms
  create_atoms CPU = 0.00513518 secs
64000 atoms in group solvent
WARNING: Replicating in a non-periodic dimension (src/replicate.cpp:72)
  orthogonal box = (0 0 0) to (80 80 80)
  2 by 2 by 4 MPI processor grid
  512000 atoms
  0 = max # of 1-2 neighbors
  0 = max # of 1-3 neighbors
  0 = max # of 1-4 neighbors
  1 = max # of special neighbors
  special bonds CPU = 0.0190099 secs
  replicate CPU = 0.0563361 secs
  orthogonal box = (0 0 0) to (80 80 160)
  2 by 2 by 4 MPI processor grid
  0 = max # of 1-2 neighbors
  0 = max # of 1-3 neighbors
  0 = max # of 1-4 neighbors
  1 = max # of special neighbors
  special bonds CPU = 0.00976476 secs
  read_data CPU = 0.0345466 secs
Neighbor list info ...
  update every 1 steps, delay 10 steps, check yes
  max neighbors/atom: 2000, page size: 100000
  master list distance cutoff = 4.8
  ghost atom cutoff = 4.8
  binsize = 2.4, bins = 34 34 67
  1 neighbor lists, perpetual/occasional/extra = 1 0 0
  (1) pair lj/cut/opt, perpetual
      attributes: half, newton on
      pair build: half/bin/newton
      stencil: half/bin/3d/newton
      bin: standard
  rebalancing time: 0.0302715 seconds
  iteration count = 5
  initial/final max load/proc = 64000 35200
  initial/final imbalance factor = 2 1.1
  x cuts: 0 0.5 1
  y cuts: 0 0.5 1
  z cuts: 0 0.125 0.257812 0.375 1
WARNING: Ignoring 'compress yes' for molecular system (src/delete_atoms.cpp:125)
Deleted 12800 atoms, new total = 499200
dynamic group thermo defined
New timer settings: style=full  mode=nosync  timeout=off
Per MPI rank memory allocation (min/avg/max) = 53.99 | 63.14 | 70.79 Mbytes
Step Temp E_pair E_vdwl TotEng Press PotEng KinEng Volume 
       0    0.9999782   -4.1582862   -4.1582862   -2.6583219    8.3781089   -4.1582862    1.4999643      1024000 
    1000    1.5245401    -5.455507    -5.455507   -3.1687014    4.1278816    -5.455507    2.2868055      1024000 
    2000     1.515837   -5.5237419   -5.5237419    -3.249991    2.6894266   -5.5237419    2.2737509      1024000 
    3000    1.5037067   -5.5158867   -5.5158867   -3.2603312    1.5131763   -5.5158867    2.2555555      1024000 
    4000    1.4428591    -5.391966    -5.391966   -3.2276817   0.75931046    -5.391966    2.1642843      1024000 
    5000    1.3563168   -5.2292264   -5.2292264   -3.1947553    0.3885192   -5.2292264    2.0344711      1024000 
    6000    1.2877868   -5.0993856   -5.0993856   -3.1677093   0.25186314   -5.0993856    1.9316763      1024000 
    7000    1.2733354   -5.0578536   -5.0578536   -3.1478543   0.29861544   -5.0578536    1.9099993      1024000 
    8000    1.2855567   -5.0644355   -5.0644355   -3.1361043   0.36426273   -5.0644355    1.9283312      1024000 
    9000    1.2918609   -5.0654387   -5.0654387   -3.1276511    0.3946945   -5.0654387    1.9377875      1024000 
   10000    1.3076084    -5.081463    -5.081463   -3.1200543   0.43783061    -5.081463    1.9614087      1024000 
   11000    1.3242154   -5.0977467   -5.0977467   -3.1114275   0.51060075   -5.0977467    1.9863191      1024000 
   12000    1.3353441   -5.1112988   -5.1112988   -3.1082866   0.57137701   -5.1112988    2.0030122      1024000 
   13000    1.3394354    -5.111464    -5.111464   -3.1023149    0.5678614    -5.111464    2.0091491      1024000 
   14000    1.3333164   -5.0952375   -5.0952375    -3.095267   0.52536217   -5.0952375    1.9999705      1024000 
   15000    1.3230065   -5.0733847   -5.0733847   -3.0888789   0.46534227   -5.0733847    1.9845058      1024000 
   16000    1.3147437   -5.0546319   -5.0546319   -3.0825204   0.42244931   -5.0546319    1.9721115      1024000 
   17000    1.3089029   -5.0416643   -5.0416643   -3.0783139   0.40095564   -5.0416643    1.9633504      1024000 
   18000    1.3121014   -5.0427893   -5.0427893   -3.0746412   0.40401109   -5.0427893    1.9681481      1024000 
   19000    1.3190445   -5.0474967   -5.0474967   -3.0689339   0.44086341   -5.0474967    1.9785628      1024000 
   20000    1.3298468   -5.0591253   -5.0591253    -3.064359   0.48312224   -5.0591253    1.9947662      1024000 
   21000    1.3423105   -5.0755273   -5.0755273   -3.0620656   0.92858062   -5.0755273    2.0134617      1024000 
   22000    1.3494895   -5.0788264   -5.0788264   -3.0545962    1.6830631   -5.0788264    2.0242302      1024000 
   23000    1.3591998   -5.0894957   -5.0894957      -3.0507    2.2589163   -5.0894957    2.0387957      1024000 
   24000    1.3595813   -5.0886704   -5.0886704   -3.0493026    1.7921895   -5.0886704    2.0393678      1024000 
   25000    1.3467813   -5.0624213   -5.0624213   -3.0422534    1.1774327   -5.0624213    2.0201679      1024000 
   26000    1.3072107     -4.99781     -4.99781   -3.0369979   0.73280383     -4.99781    1.9608121      1024000 
   27000    1.2580031   -4.9193885   -4.9193885   -3.0323875   0.51940999   -4.9193885    1.8870009      1024000 
   28000    1.2254861    -4.865615    -4.865615   -3.0273895   0.53465263    -4.865615    1.8382255      1024000 
   29000    1.2244781   -4.8607553   -4.8607553   -3.0240418   0.78917137   -4.8607553    1.8367135      1024000 
   30000    1.2329076    -4.869263    -4.869263   -3.0199053   0.84464294    -4.869263    1.8493577      1024000 
   31000    1.2292533   -4.8593475   -4.8593475   -3.0154712   0.84148233   -4.8593475    1.8438763      1024000 
   32000    1.2122184   -4.8312285   -4.8312285   -3.0129046   0.92023199   -4.8312285    1.8183239      1024000 
   33000    1.1602221   -4.7495699   -4.7495699   -3.0092402   0.52887633   -4.7495699    1.7403297      1024000 
   34000    1.0927196   -4.6443443   -4.6443443   -3.0052682   0.20031556   -4.6443443    1.6390761      1024000 
   35000    1.0325242   -4.5526232   -4.5526232     -3.00384  0.035944795   -4.5526232    1.5487832      1024000 
   36000   0.99470968   -4.4932438   -4.4932438   -3.0011823 -0.025877356   -4.4932438    1.4920615      1024000 
   37000   0.98047447   -4.4665193   -4.4665193   -2.9958106 -0.0095029036   -4.4665193    1.4707088      1024000 
   38000   0.98223708    -4.467847    -4.467847   -2.9944943  0.023044008    -4.467847    1.4733527      1024000 
   39000   0.98953036   -4.4755256   -4.4755256    -2.991233  0.064492094   -4.4755256    1.4842926      1024000 
   40000   0.99904705   -4.4875835   -4.4875835    -2.989016  0.090785903   -4.4875835    1.4985676      1024000 
   41000    1.0088938   -4.4967373   -4.4967373   -2.9833997   0.11503952   -4.4967373    1.5133376      1024000 
   42000    1.0141967   -4.5037617   -4.5037617   -2.9824697   0.12603281   -4.5037617     1.521292      1024000 
   43000    1.0157491   -4.5040433   -4.5040433   -2.9804228   0.13071154   -4.5040433    1.5236205      1024000 
   44000    1.0191723   -4.5067492   -4.5067492   -2.9779939    0.1393997   -4.5067492    1.5287553      1024000 
   45000    1.0193376   -4.5089876   -4.5089876   -2.9799843   0.14179563   -4.5089876    1.5290033      1024000 
   46000    1.0219453   -4.5113722   -4.5113722   -2.9784573    0.1406389   -4.5113722    1.5329149      1024000 
   47000    1.0215687   -4.5125145   -4.5125145   -2.9801645   0.13866198   -4.5125145      1.53235      1024000 
   48000    1.0201991    -4.511519    -4.511519   -2.9812234   0.14357336    -4.511519    1.5302956      1024000 
   49000    1.0226173    -4.516226    -4.516226   -2.9823031     0.148146    -4.516226    1.5339229      1024000 
   50000     1.022366   -4.5215183   -4.5215183   -2.9879724   0.14926607   -4.5215183     1.533546      1024000 
   51000    1.0225626    -4.524443    -4.524443   -2.9906021   0.15298306    -4.524443    1.5338409      1024000 
   52000    1.0258063   -4.5328477   -4.5328477   -2.9941412   0.14627706   -4.5328477    1.5387064      1024000 
   53000    1.0258067   -4.5358553   -4.5358553   -2.9971483   0.15924219   -4.5358553     1.538707      1024000 
   54000    1.0260189   -4.5413686   -4.5413686   -3.0023433    0.1541045   -4.5413686    1.5390252      1024000 
   55000    1.0269164    -4.547543    -4.547543   -3.0071715   0.16029428    -4.547543    1.5403715      1024000 
   56000    1.0284296   -4.5564374   -4.5564374   -3.0137961    0.1641425   -4.5564374    1.5426414      1024000 
   57000    1.0294058   -4.5666141   -4.5666141   -3.0225085   0.18350065   -4.5666141    1.5441056      1024000 
   58000    1.0300003   -4.5798038   -4.5798038   -3.0348064   0.18352834   -4.5798038    1.5449974      1024000 
   59000    1.0299471   -4.5857273   -4.5857273   -3.0408097   0.19158963   -4.5857273    1.5449176      1024000 
   60000    1.0266625   -4.5892297   -4.5892297    -3.049239   0.17994903   -4.5892297    1.5399907      1024000 
   61000    1.0236907   -4.5901265   -4.5901265   -3.0545935   0.17200819   -4.5901265     1.535533      1024000 
   62000    1.0198421   -4.5853197   -4.5853197   -3.0555597   0.16670296   -4.5853197      1.52976      1024000 
   63000    1.0169249   -4.5798653   -4.5798653    -3.054481   0.14461719   -4.5798653    1.5253843      1024000 
   64000    1.0127586   -4.5728001   -4.5728001   -3.0536652   0.13592364   -4.5728001    1.5191349      1024000 
   65000    1.0125246   -4.5713376   -4.5713376   -3.0525538   0.12695023   -4.5713376    1.5187838      1024000 
   66000    1.0104629   -4.5665211   -4.5665211   -3.0508298   0.12541663   -4.5665211    1.5156913      1024000 
   67000    1.0092296   -4.5654988   -4.5654988   -3.0516574   0.12353155   -4.5654988    1.5138414      1024000 
   68000    1.0107892   -4.5659421   -4.5659421   -3.0497614   0.12014958   -4.5659421    1.5161807      1024000 
   69000    1.0116627    -4.566516    -4.566516   -3.0490249    0.1207913    -4.566516    1.5174911      1024000 
   70000    1.0128832   -4.5686913   -4.5686913   -3.0493696   0.12126373   -4.5686913    1.5193217      1024000 
   71000    1.0136676   -4.5682535   -4.5682535   -3.0477551   0.13101081   -4.5682535    1.5204984      1024000 
   72000    1.0135761   -4.5702941   -4.5702941    -3.049933   0.12815082   -4.5702941    1.5203611      1024000 
   73000    1.0146319   -4.5709105   -4.5709105   -3.0489657   0.13628633   -4.5709105    1.5219448      1024000 
   74000    1.0162951   -4.5764129   -4.5764129   -3.0519732   0.12678229   -4.5764129    1.5244396      1024000 
   75000    1.0164395   -4.5757237   -4.5757237   -3.0510675   0.13111698   -4.5757237    1.5246562      1024000 
   76000    1.0156889   -4.5756583   -4.5756583    -3.052128   0.13367662   -4.5756583    1.5235303      1024000 
   77000    1.0151454   -4.5756297   -4.5756297   -3.0529147   0.12390836   -4.5756297     1.522715      1024000 
   78000    1.0173786     -4.57677     -4.57677   -3.0507051   0.12678545     -4.57677    1.5260648      1024000 
   79000    1.0173986   -4.5769595   -4.5769595   -3.0508645   0.12536391   -4.5769595    1.5260949      1024000 
   80000    1.0179169   -4.5768739   -4.5768739   -3.0500016   0.12812704   -4.5768739    1.5268723      1024000 
   81000    1.0158796   -4.5754084   -4.5754084    -3.051592   0.12900774   -4.5754084    1.5238164      1024000 
   82000     1.018526   -4.5781706   -4.5781706   -3.0503847   0.12417947   -4.5781706    1.5277859      1024000 
   83000    1.0174106   -4.5750673   -4.5750673   -3.0489544   0.12407396   -4.5750673    1.5261129      1024000 
   84000    1.0159828   -4.5750826   -4.5750826   -3.0511115    0.1218674   -4.5750826    1.5239711      1024000 
   85000    1.0176071   -4.5760035   -4.5760035    -3.049596    0.1202641   -4.5760035    1.5264076      1024000 
   86000    1.0178317   -4.5773037   -4.5773037   -3.0505593   0.11820671   -4.5773037    1.5267444      1024000 
   87000    1.0187044   -4.5773569   -4.5773569   -3.0493033   0.12644735   -4.5773569    1.5280536      1024000 
   88000    1.0203462   -4.5794976   -4.5794976   -3.0489814   0.12470522   -4.5794976    1.5305162      1024000 
   89000    1.0218935   -4.5813518   -4.5813518   -3.0485146   0.13242722   -4.5813518    1.5328372      1024000 
   90000    1.0230376   -4.5835867   -4.5835867   -3.0490333   0.13202032   -4.5835867    1.5345534      1024000 
   91000    1.0231764    -4.584347    -4.584347   -3.0495854   0.13181943    -4.584347    1.5347616      1024000 
   92000    1.0239451   -4.5880127   -4.5880127   -3.0520981    0.1295465   -4.5880127    1.5359146      1024000 
   93000    1.0257965   -4.5909338   -4.5909338   -3.0522421   0.13486947   -4.5909338    1.5386917      1024000 
   94000    1.0266411   -4.5927017   -4.5927017   -3.0527431   0.13768765   -4.5927017    1.5399586      1024000 
   95000     1.027732   -4.5938477   -4.5938477   -3.0522528   0.14369172   -4.5938477    1.5415949      1024000 
   96000    1.0281601   -4.5963546   -4.5963546   -3.0541175    0.1445056   -4.5963546    1.5422371      1024000 
   97000    1.0284059   -4.5980031   -4.5980031   -3.0553974   0.14268779   -4.5980031    1.5426057      1024000 
   98000    1.0321667    -4.601436    -4.601436   -3.0531891   0.14664072    -4.601436    1.5482469      1024000 
   99000    1.0315574   -4.6023978   -4.6023978   -3.0550648   0.15549246   -4.6023978     1.547333      1024000 
  100000    1.0330174   -4.6078967   -4.6078967   -3.0583738   0.15653325   -4.6078967     1.549523      1024000 
  101000    1.0352761   -4.6119248   -4.6119248   -3.0590138   0.16181764   -4.6119248     1.552911      1024000 
  102000    1.0377217   -4.6160802   -4.6160802   -3.0595009    0.1684276   -4.6160802    1.5565794      1024000 
  103000    1.0381913   -4.6182464   -4.6182464   -3.0609626   0.17708297   -4.6182464    1.5572838      1024000 
  104000     1.038766   -4.6202416   -4.6202416   -3.0620957   0.18723216   -4.6202416    1.5581459      1024000 
  105000    1.0417874    -4.624214    -4.624214   -3.0615361   0.18464544    -4.624214    1.5626779      1024000 
  106000    1.0418289   -4.6268826   -4.6268826   -3.0641425   0.18982032   -4.6268826    1.5627402      1024000 
  107000     1.041575   -4.6290581   -4.6290581   -3.0666988   0.19795566   -4.6290581    1.5623593      1024000 
  108000    1.0421196    -4.631381    -4.631381   -3.0682048   0.19900627    -4.631381    1.5631762      1024000 
  109000     1.041493   -4.6314876   -4.6314876   -3.0692511   0.20035274   -4.6314876    1.5622364      1024000 
  110000    1.0391988   -4.6318337   -4.6318337   -3.0730386   0.19215371   -4.6318337    1.5587951      1024000 
  111000    1.0386211   -4.6305591   -4.6305591   -3.0726305   0.18949846   -4.6305591    1.5579286      1024000 
  112000    1.0372958   -4.6315188   -4.6315188   -3.0755782   0.17402724   -4.6315188    1.5559406      1024000 
  113000    1.0341287   -4.6267613   -4.6267613   -3.0755714   0.16827116   -4.6267613    1.5511899      1024000 
  114000    1.0305219   -4.6236297   -4.6236297     -3.07785   0.16177183   -4.6236297    1.5457797      1024000 
  115000     1.027596    -4.618233    -4.618233    -3.076842   0.15261948    -4.618233     1.541391      1024000 
  116000     1.023875   -4.6146477   -4.6146477   -3.0788383   0.14016135   -4.6146477    1.5358094      1024000 
  117000    1.0202916   -4.6063141   -4.6063141   -3.0758798   0.13406293   -4.6063141    1.5304344      1024000 
  118000     1.017784   -4.5994975   -4.5994975   -3.0728245    0.1193069   -4.5994975     1.526673      1024000 
  119000    1.0132412   -4.5930135   -4.5930135   -3.0731547   0.10835887   -4.5930135    1.5198587      1024000 
  120000    1.0110538   -4.5875176   -4.5875176     -3.07094  0.095264691   -4.5875176    1.5165776      1024000 
  121000     1.007858   -4.5816604   -4.5816604   -3.0698765   0.08238899   -4.5816604    1.5117839      1024000 
  122000    1.0042744   -4.5745931   -4.5745931   -3.0681846  0.076649342   -4.5745931    1.5064085      1024000 
  123000    1.0013873   -4.5673856   -4.5673856   -3.0653077  0.064496808   -4.5673856     1.502078      1024000 
  124000   0.99805954   -4.5619676   -4.5619676   -3.0648813  0.048459307   -4.5619676    1.4970863      1024000 
  125000   0.99271215   -4.5551986   -4.5551986   -3.0661334   0.04211984   -4.5551986    1.4890652      1024000 
  126000   0.99192922   -4.5510938   -4.5510938   -3.0632029  0.030195405   -4.5510938    1.4878908      1024000 
  127000   0.98958884   -4.5444405   -4.5444405   -3.0600602  0.026233568   -4.5444405    1.4843803      1024000 
  128000   0.98881558   -4.5417949   -4.5417949   -3.0585745  0.026530883   -4.5417949    1.4832204      1024000 
  129000   0.98754296   -4.5385098   -4.5385098   -3.0571984  0.023750712   -4.5385098    1.4813115      1024000 
  130000   0.98897448   -4.5396002   -4.5396002   -3.0561415  0.011672768   -4.5396002    1.4834587      1024000 
  131000   0.98710774   -4.5348024   -4.5348024   -3.0541437  0.013886415   -4.5348024    1.4806586      1024000 
  132000   0.98822015   -4.5322527   -4.5322527   -3.0499254  0.020867782   -4.5322527    1.4823273      1024000 
  133000   0.98752357   -4.5315353   -4.5315353   -3.0502529  0.023400332   -4.5315353    1.4812824      1024000 
  134000   0.98866661   -4.5330305   -4.5330305   -3.0500336  0.021526181   -4.5330305    1.4829969      1024000 
  135000   0.98898034   -4.5335286   -4.5335286    -3.050061  0.025356532   -4.5335286    1.4834675      1024000 
  136000   0.99152594   -4.5349389   -4.5349389   -3.0476529  0.027561468   -4.5349389    1.4872859      1024000 
  137000   0.99370096   -4.5362701   -4.5362701   -3.0457216  0.033885465   -4.5362701    1.4905485      1024000 
  138000   0.99507443   -4.5387464   -4.5387464   -3.0461377  0.036838531   -4.5387464    1.4926087      1024000 
  139000   0.99687406   -4.5441079   -4.5441079   -3.0487998  0.038504595   -4.5441079    1.4953081      1024000 
  140000   0.99868463   -4.5421397   -4.5421397   -3.0441158  0.051664951   -4.5421397    1.4980239      1024000 
  141000    1.0011605   -4.5461971   -4.5461971   -3.0444594   0.04677309   -4.5461971    1.5017378      1024000 
  142000    1.0019281    -4.549167    -4.549167   -3.0462778  0.057287241    -4.549167    1.5028892      1024000 
  143000    1.0021416   -4.5520695   -4.5520695   -3.0488601  0.064846438   -4.5520695    1.5032094      1024000 
  144000    1.0046777   -4.5570061   -4.5570061   -3.0499925  0.064965776   -4.5570061    1.5070135      1024000 
  145000    1.0072249   -4.5600235   -4.5600235   -3.0491891  0.076182555   -4.5600235    1.5108344      1024000 
  146000     1.008828   -4.5621428   -4.5621428   -3.0489038  0.084415642   -4.5621428    1.5132389      1024000 
  147000    1.0101972   -4.5647254   -4.5647254   -3.0494326  0.085267057   -4.5647254    1.5152928      1024000 
  148000    1.0109636   -4.5675036   -4.5675036   -3.0510613  0.085951854   -4.5675036    1.5164423      1024000 
  149000    1.0109337   -4.5699466   -4.5699466   -3.0535491  0.079964757   -4.5699466    1.5163975      1024000 
  150000    1.0110277   -4.5685163   -4.5685163   -3.0519777    0.0878375   -4.5685163    1.5165386      1024000 
  151000    1.0116595   -4.5697949   -4.5697949   -3.0523087  0.088003994   -4.5697949    1.5174862      1024000 
  152000    1.0113974   -4.5695368   -4.5695368   -3.0524438   0.09402316   -4.5695368     1.517093      1024000 
  153000    1.0102973   -4.5704231   -4.5704231   -3.0549802  0.086873483   -4.5704231    1.5154429      1024000 
  154000    1.0105715   -4.5688402   -4.5688402   -3.0529859  0.088896793   -4.5688402    1.5158543      1024000 
  155000    1.0111974   -4.5711566   -4.5711566   -3.0543634  0.088919658   -4.5711566    1.5167931      1024000 
  156000    1.0092488   -4.5698871   -4.5698871   -3.0560169  0.087806802   -4.5698871    1.5138701      1024000 
  157000    1.0096458   -4.5706018   -4.5706018   -3.0561362  0.078959361   -4.5706018    1.5144656      1024000 
  158000    1.0098738   -4.5708305   -4.5708305   -3.0560228  0.077423331   -4.5708305    1.5148077      1024000 
  159000    1.0104066   -4.5697386   -4.5697386   -3.0541317  0.080764964   -4.5697386    1.5156069      1024000 
  160000    1.0084039   -4.5687261   -4.5687261   -3.0561233  0.080324913   -4.5687261    1.5126028      1024000 
  161000    1.0093897   -4.5694857   -4.5694857   -3.0554042  0.074087367   -4.5694857    1.5140815      1024000 
  162000    1.0088465   -4.5679108   -4.5679108   -3.0546441  0.079823834   -4.5679108    1.5132667      1024000 
  163000     1.007545   -4.5672464   -4.5672464   -3.0559319   0.08322985   -4.5672464    1.5113145      1024000 
  164000    1.0088773    -4.568593    -4.568593     -3.05528  0.075117685    -4.568593     1.513313      1024000 
  165000    1.0083286   -4.5669281   -4.5669281   -3.0544383  0.074845551   -4.5669281    1.5124898      1024000 
  166000    1.0067358   -4.5683273   -4.5683273   -3.0582266  0.074696118   -4.5683273    1.5101007      1024000 
  167000    1.0073393   -4.5663405   -4.5663405   -3.0553346  0.075931332   -4.5663405    1.5110059      1024000 
  168000    1.0069743    -4.566389    -4.566389   -3.0559306  0.079584388    -4.566389    1.5104584      1024000 
  169000    1.0068026   -4.5668249   -4.5668249    -3.056624  0.072654498   -4.5668249    1.5102009      1024000 
  170000    1.0079712   -4.5685202   -4.5685202   -3.0565665  0.070653638   -4.5685202    1.5119537      1024000 
  171000    1.0059425   -4.5666607   -4.5666607   -3.0577501  0.072575619   -4.5666607    1.5089107      1024000 
  172000    1.0055309   -4.5647634   -4.5647634     -3.05647  0.071760758   -4.5647634    1.5082934      1024000 
  173000    1.0078527   -4.5674773   -4.5674773   -3.0557013   0.06615688   -4.5674773     1.511776      1024000 
  174000    1.0080388   -4.5670127   -4.5670127   -3.0549575  0.067288829   -4.5670127    1.5120552      1024000 
  175000    1.0069626   -4.5652871   -4.5652871   -3.0548461  0.071062139   -4.5652871    1.5104409      1024000 
  176000    1.0052327   -4.5658861   -4.5658861     -3.05804  0.068560939   -4.5658861    1.5078461      1024000 
  177000     1.007035   -4.5662603   -4.5662603   -3.0557107  0.068821713   -4.5662603    1.5105495      1024000 
  178000    1.0056267   -4.5660424   -4.5660424   -3.0576054  0.064197461   -4.5660424     1.508437      1024000 
  179000    1.0067104   -4.5661402   -4.5661402   -3.0560776  0.063416534   -4.5661402    1.5100626      1024000 
  180000    1.0072636   -4.5660983   -4.5660983    -3.055206  0.069652985   -4.5660983    1.5108923      1024000 
  181000    1.0075876   -4.5658897   -4.5658897   -3.0545114  0.065517823   -4.5658897    1.5113783      1024000 
  182000    1.0075718   -4.5642733   -4.5642733   -3.0529186  0.072843198   -4.5642733    1.5113546      1024000 
  183000    1.0062269   -4.5639503   -4.5639503    -3.054613  0.070128223   -4.5639503    1.5093373      1024000 
  184000    1.0052837   -4.5634129   -4.5634129   -3.0554903  0.068865006   -4.5634129    1.5079225      1024000 
  185000    1.0062543   -4.5634749   -4.5634749   -3.0540964  0.065335485   -4.5634749    1.5093785      1024000 
  186000    1.0051849   -4.5634727   -4.5634727   -3.0556984  0.066655775   -4.5634727    1.5077743      1024000 
  187000    1.0065158   -4.5644508   -4.5644508   -3.0546802  0.070707069   -4.5644508    1.5097707      1024000 
  188000    1.0071139   -4.5664892   -4.5664892   -3.0558214  0.069409965   -4.5664892    1.5106678      1024000 
  189000    1.0056525   -4.5647765   -4.5647765   -3.0563008   0.07159254   -4.5647765    1.5084758      1024000 
  190000    1.0064575   -4.5628113   -4.5628113    -3.053128  0.074979027   -4.5628113    1.5096833      1024000 
  191000    1.0052784   -4.5631443   -4.5631443   -3.0552298  0.071131086   -4.5631443    1.5079146      1024000 
  192000    1.0077598   -4.5663869   -4.5663869   -3.0547502  0.066984962   -4.5663869    1.5116367      1024000 
  193000    1.0060163   -4.5655625   -4.5655625    -3.056541  0.067291476   -4.5655625    1.5090215      1024000 
  194000    1.0069851   -4.5655837   -4.5655837    -3.055109  0.073250216   -4.5655837    1.5104747      1024000 
  195000    1.0076673   -4.5668456   -4.5668456   -3.0553477  0.069450759   -4.5668456    1.5114979      1024000 
  196000    1.0063177   -4.5655513   -4.5655513   -3.0560777  0.074969808   -4.5655513    1.5094736      1024000 
  197000    1.0073167   -4.5672126   -4.5672126   -3.0562406  0.066870895   -4.5672126     1.510972      1024000 
  198000     1.007885   -4.5661747   -4.5661747   -3.0543503  0.066096407   -4.5661747    1.5118245      1024000 
  199000    1.0058644   -4.5655666   -4.5655666   -3.0567729  0.068240739   -4.5655666    1.5087936      1024000 
  200000     1.005092   -4.5641489   -4.5641489   -3.0565139  0.072512057   -4.5641489     1.507635      1024000 
  201000    1.0071725   -4.5671524   -4.5671524   -3.0563967  0.072984559   -4.5671524    1.5107557      1024000 
  202000    1.0058682   -4.5681326   -4.5681326   -3.0593334  0.064762915   -4.5681326    1.5087992      1024000 
  203000    1.0055533   -4.5673432   -4.5673432   -3.0590163  0.065463651   -4.5673432     1.508327      1024000 
  204000    1.0060944   -4.5674831   -4.5674831   -3.0583445  0.072853475   -4.5674831    1.5091386      1024000 
  205000    1.0051078   -4.5678463   -4.5678463   -3.0601877  0.069066129   -4.5678463    1.5076586      1024000 
  206000    1.0066767   -4.5676183   -4.5676183   -3.0576063  0.066789411   -4.5676183     1.510012      1024000 
  207000    1.0045644   -4.5663141   -4.5663141   -3.0594705  0.066877988   -4.5663141    1.5068435      1024000 
  208000    1.0060286   -4.5672823   -4.5672823   -3.0582424  0.065297155   -4.5672823    1.5090399      1024000 
  209000    1.0046708   -4.5656464   -4.5656464   -3.0586433  0.072743505   -4.5656464    1.5070031      1024000 
  210000    1.0049419   -4.5664859   -4.5664859   -3.0590761  0.071284545   -4.5664859    1.5074098      1024000 
  211000    1.0060943   -4.5682741   -4.5682741   -3.0591357  0.066587162   -4.5682741    1.5091384      1024000 
  212000    1.0053526   -4.5671539   -4.5671539    -3.059128  0.067131785   -4.5671539    1.5080259      1024000 
  213000    1.0049903   -4.5677128   -4.5677128   -3.0602304  0.068820954   -4.5677128    1.5074824      1024000 
  214000    1.0052404   -4.5666912   -4.5666912   -3.0588336  0.073118459   -4.5666912    1.5078576      1024000 
  215000    1.0046692   -4.5682648   -4.5682648   -3.0612641  0.066846036   -4.5682648    1.5070007      1024000 
  216000    1.0066376   -4.5690645   -4.5690645   -3.0591112  0.064640963   -4.5690645    1.5099533      1024000 
  217000    1.0052971   -4.5682442   -4.5682442   -3.0603016  0.074175506   -4.5682442    1.5079426      1024000 
  218000    1.0054694   -4.5696067   -4.5696067   -3.0614057  0.070718771   -4.5696067     1.508201      1024000 
  219000    1.0059251   -4.5704072   -4.5704072   -3.0615227  0.062105175   -4.5704072    1.5088846      1024000 
  220000    1.0050984   -4.5702081   -4.5702081   -3.0625636  0.065700592   -4.5702081    1.5076445      1024000 
  221000    1.0037973   -4.5700824   -4.5700824   -3.0643895   0.06553036   -4.5700824    1.5056929      1024000 
  222000    1.0048274   -4.5696124   -4.5696124   -3.0623743  0.068450156   -4.5696124    1.5072381      1024000 
  223000    1.0052981    -4.569349    -4.569349    -3.061405   0.06868888    -4.569349    1.5079441      1024000 
  224000    1.0047616     -4.56942     -4.56942   -3.0622807  0.068731422     -4.56942    1.5071393      1024000 
  225000    1.0049776   -4.5677575   -4.5677575   -3.0602942  0.068176983   -4.5677575    1.5074633      1024000 
  226000    1.0064098   -4.5706379   -4.5706379   -3.0610263  0.065301836   -4.5706379    1.5096116      1024000 
  227000    1.0063883   -4.5696223   -4.5696223   -3.0600428  0.072370377   -4.5696223    1.5095795      1024000 
  228000     1.005577   -4.5691327   -4.5691327   -3.0607703  0.072246188   -4.5691327    1.5083625      1024000 
  229000    1.0050191   -4.5711124   -4.5711124   -3.0635867  0.066398889   -4.5711124    1.5075256      1024000 
  230000    1.0046823   -4.5709042   -4.5709042   -3.0638837  0.069299491   -4.5709042    1.5070205      1024000 
  231000    1.0058405   -4.5699829   -4.5699829   -3.0612252   0.06838295   -4.5699829    1.5087577      1024000 
  232000    1.0053822   -4.5714211   -4.5714211   -3.0633509  0.064334159   -4.5714211    1.5080702      1024000 
  233000    1.0049526   -4.5700783   -4.5700783   -3.0626524  0.066817066   -4.5700783    1.5074259      1024000 
  234000    1.0051387   -4.5704791   -4.5704791   -3.0627741   0.06491408   -4.5704791     1.507705      1024000 
  235000    1.0044084   -4.5704647   -4.5704647   -3.0638551  0.065937064   -4.5704647    1.5066096      1024000 
  236000     1.005288   -4.5706784   -4.5706784   -3.0627495   0.06534409   -4.5706784    1.5079289      1024000 
  237000     1.004827   -4.5703952   -4.5703952   -3.0631578  0.064331511   -4.5703952    1.5072375      1024000 
  238000    1.0049716   -4.5716447   -4.5716447   -3.0641903  0.061481814   -4.5716447    1.5074544      1024000 
  239000    1.0054084   -4.5710108   -4.5710108   -3.0629012  0.065726836   -4.5710108    1.5081096      1024000 
  240000    1.0038004   -4.5694746   -4.5694746    -3.063777  0.069873651   -4.5694746    1.5056975      1024000 
  241000    1.0030392   -4.5694404   -4.5694404   -3.0648846  0.074962251   -4.5694404    1.5045558      1024000 
  242000    1.0049316   -4.5720404   -4.5720404    -3.064646  0.064302043   -4.5720404    1.5073943      1024000 
  243000    1.0046887   -4.5706821   -4.5706821    -3.063652   0.06640682   -4.5706821    1.5070301      1024000 
  244000      1.00293   -4.5689397   -4.5689397   -3.0645478  0.064382476   -4.5689397    1.5043919      1024000 
  245000    1.0038459   -4.5691178   -4.5691178    -3.063352  0.067583336   -4.5691178    1.5057658      1024000 
  246000    1.0045654   -4.5703562   -4.5703562   -3.0635112  0.064496871   -4.5703562     1.506845      1024000 
  247000    1.0032521   -4.5685427   -4.5685427   -3.0636676  0.069679587   -4.5685427    1.5048751      1024000 
  248000    1.0029498   -4.5701658   -4.5701658   -3.0657441   0.06262529   -4.5701658    1.5044217      1024000 
  249000    1.0027139   -4.5700871   -4.5700871   -3.0660194   0.06257551   -4.5700871    1.5040678      1024000 
  250000    1.0030647   -4.5717791   -4.5717791    -3.067185   0.05937643   -4.5717791     1.504594      1024000 
  251000    1.0027571   -4.5705876   -4.5705876    -3.066455  0.060254666   -4.5705876    1.5041327      1024000 
  252000    1.0009508    -4.567486    -4.567486   -3.0660628  0.071570127    -4.567486    1.5014232      1024000 
  253000    1.0038452   -4.5731611   -4.5731611   -3.0673964  0.059997994   -4.5731611    1.5057648      1024000 
  254000    1.0045234   -4.5722453   -4.5722453   -3.0654632  0.066251879   -4.5722453    1.5067821      1024000 
  255000    1.0039492   -4.5719775   -4.5719775   -3.0660568   0.06690402   -4.5719775    1.5059208      1024000 
  256000    1.0050026   -4.5737456   -4.5737456   -3.0662447  0.066457715   -4.5737456    1.5075009      1024000 
  257000     1.004355   -4.5712001   -4.5712001   -3.0646706   0.07152443   -4.5712001    1.5065295      1024000 
  258000    1.0043494   -4.5727979   -4.5727979   -3.0662768  0.067287324   -4.5727979    1.5065211      1024000 
  259000    1.0036936   -4.5734403   -4.5734403    -3.067903   0.07087827   -4.5734403    1.5055374      1024000 
  260000    1.0039062   -4.5738248   -4.5738248   -3.0679685  0.070103982   -4.5738248    1.5058563      1024000 
  261000     1.005907   -4.5740711   -4.5740711   -3.0652136  0.067094835   -4.5740711    1.5088574      1024000 
  262000    1.0056732   -4.5742683   -4.5742683   -3.0657616  0.070145571   -4.5742683    1.5085067      1024000 
  263000     1.005788   -4.5760858   -4.5760858   -3.0674068  0.067419652   -4.5760858     1.508679      1024000 
  264000    1.0042921   -4.5746784   -4.5746784   -3.0682432  0.069958028   -4.5746784    1.5064352      1024000 
  265000    1.0036063   -4.5739694   -4.5739694    -3.068563  0.066146686   -4.5739694    1.5054064      1024000 
  266000    1.0044029   -4.5750819   -4.5750819   -3.0684806  0.065269971   -4.5750819    1.5066013      1024000 
  267000    1.0046942   -4.5759973   -4.5759973   -3.0689591  0.071410166   -4.5759973    1.5070382      1024000 
  268000    1.0053298   -4.5753095   -4.5753095   -3.0673178  0.069465866   -4.5753095    1.5079917      1024000 
  269000    1.0047555   -4.5769374   -4.5769374   -3.0698071  0.066276495   -4.5769374    1.5071303      1024000 
  270000    1.0038845   -4.5759976   -4.5759976   -3.0701739  0.066119466   -4.5759976    1.5058237      1024000 
  271000    1.0032226   -4.5745614   -4.5745614   -3.0697305  0.074168942   -4.5745614    1.5048309      1024000 
  272000    1.0040429   -4.5761299   -4.5761299   -3.0700685  0.069322037   -4.5761299    1.5060614      1024000 
  273000    1.0037026   -4.5762214   -4.5762214   -3.0706704  0.068248109   -4.5762214    1.5055509      1024000 
  274000    1.0039231   -4.5754986   -4.5754986    -3.069617  0.070722193   -4.5754986    1.5058816      1024000 
  275000     1.001611   -4.5742106   -4.5742106   -3.0717971  0.068640092   -4.5742106    1.5024135      1024000 
  276000    1.0025064   -4.5736644   -4.5736644   -3.0699077  0.068693569   -4.5736644    1.5037566      1024000 
  277000    1.0032098   -4.5773637   -4.5773637    -3.072552  0.062662838   -4.5773637    1.5048117      1024000 
  278000     1.002271   -4.5753177   -4.5753177   -3.0719142  0.066249439   -4.5753177    1.5034035      1024000 
  279000    1.0005652   -4.5740564   -4.5740564   -3.0732115  0.067833977   -4.5740564    1.5008448      1024000 
  280000     1.002799   -4.5769545   -4.5769545    -3.072759  0.059918843   -4.5769545    1.5041955      1024000 
  281000     1.002705   -4.5756275   -4.5756275    -3.071573  0.069036191   -4.5756275    1.5040545      1024000 
  282000    1.0016967   -4.5744392   -4.5744392   -3.0718972  0.062973223   -4.5744392     1.502542      1024000 
  283000     1.000872   -4.5749716   -4.5749716   -3.0736666  0.060625551   -4.5749716     1.501305      1024000 
  284000     1.001562   -4.5756316   -4.5756316   -3.0732916  0.067520778   -4.5756316      1.50234      1024000 
  285000    1.0020794   -4.5741902   -4.5741902   -3.0710741  0.064590425   -4.5741902     1.503116      1024000 
  286000    1.0011374   -4.5767188   -4.5767188   -3.0750157  0.064879919   -4.5767188     1.501703      1024000 
  287000    1.0030004   -4.5769511   -4.5769511   -3.0724534  0.066461584   -4.5769511    1.5044976      1024000 
  288000    1.0024311    -4.577531    -4.577531   -3.0738874  0.069338928    -4.577531    1.5036436      1024000 
  289000    1.0019317   -4.5764473   -4.5764473   -3.0735528  0.069940841   -4.5764473    1.5028945      1024000 
  290000    1.0012383   -4.5776094   -4.5776094    -3.075755  0.063946488   -4.5776094    1.5018544      1024000 
  291000    1.0014573   -4.5773294   -4.5773294   -3.0751465   0.06190246   -4.5773294     1.502183      1024000 
  292000    1.0024589   -4.5774611   -4.5774611   -3.0737758  0.065703027   -4.5774611    1.5036853      1024000 
  293000    1.0020288   -4.5771091   -4.5771091   -3.0740689  0.066207397   -4.5771091    1.5030402      1024000 
  294000    1.0016567   -4.5769781   -4.5769781    -3.074496  0.069120331   -4.5769781    1.5024821      1024000 
  295000    1.0030304   -4.5778884   -4.5778884   -3.0733458  0.070524324   -4.5778884    1.5045426      1024000 
  296000    1.0032145     -4.57974     -4.57974   -3.0749213  0.068937332     -4.57974    1.5048187      1024000 
  297000    1.0038974   -4.5800648   -4.5800648   -3.0742217  0.063551608   -4.5800648    1.5058431      1024000 
  298000    1.0030321   -4.5787368   -4.5787368   -3.0741917  0.067288275   -4.5787368    1.5045451      1024000 
  299000    1.0042564    -4.579613    -4.579613   -3.0732314  0.067111915    -4.579613    1.5063816      1024000 
  300000    1.0033758   -4.5788188   -4.5788188   -3.0737581  0.073507551   -4.5788188    1.5050607      1024000 
  301000    1.0032462   -4.5809473   -4.5809473   -3.0760809  0.065866566   -4.5809473    1.5048663      1024000 
  302000    1.0028716   -4.5793211   -4.5793211   -3.0750167  0.071311376   -4.5793211    1.5043044      1024000 
  303000    1.0035721   -4.5813247   -4.5813247   -3.0759696  0.067080178   -4.5813247    1.5053551      1024000 
  304000    1.0018489   -4.5791828   -4.5791828   -3.0764124  0.068145248   -4.5791828    1.5027704      1024000 
  305000     1.002595   -4.5807046   -4.5807046   -3.0768151  0.070245735   -4.5807046    1.5038895      1024000 
  306000    1.0022126    -4.579134    -4.579134    -3.075818  0.070156018    -4.579134    1.5033159      1024000 
  307000     1.002979   -4.5784125   -4.5784125   -3.0739471  0.068592248   -4.5784125    1.5044654      1024000 
  308000    1.0024935   -4.5785555   -4.5785555   -3.0748183  0.065290091   -4.5785555    1.5037372      1024000 
  309000    1.0016575   -4.5787621   -4.5787621   -3.0762788  0.058147693   -4.5787621    1.5024833      1024000 
  310000    1.0007102   -4.5783755   -4.5783755   -3.0773132  0.065595407   -4.5783755    1.5010624      1024000 
  311000    1.0015401   -4.5775778   -4.5775778   -3.0752707  0.072096159   -4.5775778    1.5023071      1024000 
  312000    1.0019286   -4.5798939   -4.5798939    -3.077004  0.065404057   -4.5798939    1.5028899      1024000 
  313000    1.0020694   -4.5789898   -4.5789898   -3.0758888    0.0662198   -4.5789898     1.503101      1024000 
  314000   0.99964594   -4.5775312   -4.5775312   -3.0780653    0.0650087   -4.5775312    1.4994659      1024000 
  315000    0.9986866   -4.5779061   -4.5779061   -3.0798792  0.064211376   -4.5779061    1.4980269      1024000 
  316000    1.0001719    -4.579829    -4.579829    -3.079574  0.060662434    -4.579829    1.5002549      1024000 
  317000    1.0006959   -4.5784949   -4.5784949    -3.077454  0.063645936   -4.5784949    1.5010409      1024000 
  318000    1.0007481   -4.5780611   -4.5780611    -3.076942  0.065497673   -4.5780611    1.5011191      1024000 
  319000    1.0020416   -4.5789217   -4.5789217   -3.0758623  0.067406814   -4.5789217    1.5030594      1024000 
  320000    1.0013078   -4.5789329   -4.5789329   -3.0769742  0.064779076   -4.5789329    1.5019587      1024000 
  321000    1.0011391   -4.5784075   -4.5784075   -3.0767019  0.066272476   -4.5784075    1.5017057      1024000 
  322000    0.9991522   -4.5778002   -4.5778002   -3.0790749  0.067800419   -4.5778002    1.4987253      1024000 
  323000    1.0021701   -4.5811566   -4.5811566   -3.0779044  0.064622422   -4.5811566    1.5032522      1024000 
  324000    1.0025443   -4.5819279   -4.5819279   -3.0781144  0.064660973   -4.5819279    1.5038135      1024000 
  325000    1.0014026   -4.5805757   -4.5805757   -3.0784748  0.066160835   -4.5805757    1.5021009      1024000 
  326000    1.0029395   -4.5824321   -4.5824321   -3.0780259  0.062855442   -4.5824321    1.5044062      1024000 
  327000    1.0008696    -4.580579    -4.580579   -3.0792776  0.067127704    -4.580579    1.5013013      1024000 
  328000     1.002548   -4.5824798   -4.5824798   -3.0786608   0.06279642   -4.5824798    1.5038191      1024000 
  329000   0.99957434   -4.5799952   -4.5799952   -3.0806367  0.064498965   -4.5799952    1.4993585      1024000 
  330000    1.0020542   -4.5827304   -4.5827304   -3.0796521  0.064021287   -4.5827304    1.5030783      1024000 
  331000    1.0013927   -4.5819806   -4.5819806   -3.0798945  0.070694402   -4.5819806     1.502086      1024000 
  332000    1.0016509   -4.5837226   -4.5837226   -3.0812492  0.068710293   -4.5837226    1.5024734      1024000 
  333000    1.0006469   -4.5811443   -4.5811443   -3.0801769  0.072107827   -4.5811443    1.5009674      1024000 
  334000    1.0009714   -4.5810607   -4.5810607   -3.0796066  0.069940473   -4.5810607    1.5014541      1024000 
  335000    1.0037357   -4.5844269   -4.5844269   -3.0788263   0.06806632   -4.5844269    1.5056006      1024000 
  336000    1.0007801   -4.5835246   -4.5835246   -3.0823575  0.071099973   -4.5835246    1.5011671      1024000 
  337000    1.0022074   -4.5845241   -4.5845241   -3.0812161  0.067829181   -4.5845241     1.503308      1024000 
  338000    1.0019981   -4.5853807   -4.5853807   -3.0823866   0.07149156   -4.5853807    1.5029941      1024000 
  339000    1.0018965   -4.5861131   -4.5861131   -3.0832714  0.069981381   -4.5861131    1.5028417      1024000 
  340000    1.0033311   -4.5838947   -4.5838947    -3.078901  0.077340895   -4.5838947    1.5049937      1024000 
  341000    1.0018244    -4.583901    -4.583901   -3.0811674  0.071132676    -4.583901    1.5027335      1024000 
  342000    1.0004453   -4.5842417   -4.5842417   -3.0835767   0.07179044   -4.5842417     1.500665      1024000 
  343000    1.0010352   -4.5833606   -4.5833606   -3.0818108  0.073030541   -4.5833606    1.5015497      1024000 
  344000     1.001896   -4.5829176   -4.5829176   -3.0800766   0.07185131   -4.5829176     1.502841      1024000 
  345000     1.002218   -4.5826504   -4.5826504   -3.0793265  0.070074938   -4.5826504     1.503324      1024000 
  346000    1.0021426   -4.5826078   -4.5826078   -3.0793969  0.069934508   -4.5826078    1.5032109      1024000 
  347000    1.0013848   -4.5833296   -4.5833296   -3.0812555  0.068524506   -4.5833296    1.5020741      1024000 
  348000    1.0008059   -4.5831031   -4.5831031   -3.0818973  0.068269462   -4.5831031    1.5012058      1024000 
  349000     1.001562   -4.5844319   -4.5844319   -3.0820919  0.067269071   -4.5844319    1.5023399      1024000 
  350000    1.0012995   -4.5827102   -4.5827102   -3.0807639  0.072606203   -4.5827102    1.5019463      1024000 
  351000    1.0015857   -4.5835138   -4.5835138   -3.0811382  0.064450233   -4.5835138    1.5023756      1024000 
  352000    1.0004086   -4.5833951   -4.5833951   -3.0827852  0.060141979   -4.5833951      1.50061      1024000 
  353000    1.0008045   -4.5822697   -4.5822697   -3.0810659  0.066136492   -4.5822697    1.5012038      1024000 
  354000    1.0002215   -4.5812475   -4.5812475   -3.0809183  0.065440621   -4.5812475    1.5003292      1024000 
  355000   0.99895811   -4.5803376   -4.5803376   -3.0819034  0.067771373   -4.5803376    1.4984342      1024000 
  356000   0.99988886    -4.581372    -4.581372   -3.0815417  0.063374845    -4.581372    1.4998303      1024000 
  357000   0.99917788   -4.5790409   -4.5790409    -3.080277  0.066909051   -4.5790409    1.4987638      1024000 
  358000   0.99976156   -4.5815836   -4.5815836   -3.0819443  0.059305904   -4.5815836    1.4996393      1024000 
  359000   0.99755617   -4.5793997   -4.5793997   -3.0830684  0.060364596   -4.5793997    1.4963313      1024000 
  360000   0.99838418   -4.5800864   -4.5800864   -3.0825131  0.065514012   -4.5800864    1.4975733      1024000 
  361000   0.99790451   -4.5801558   -4.5801558    -3.083302  0.063369782   -4.5801558    1.4968538      1024000 
  362000   0.99882266   -4.5820605   -4.5820605   -3.0838295  0.060403668   -4.5820605     1.498231      1024000 
  363000    0.9995276   -4.5824201   -4.5824201   -3.0831317  0.061544302   -4.5824201    1.4992884      1024000 
  364000   0.99921992   -4.5817816   -4.5817816   -3.0829547  0.061040997   -4.5817816    1.4988269      1024000 
  365000   0.99993103   -4.5801472   -4.5801472   -3.0802537  0.067837405   -4.5801472    1.4998935      1024000 
  366000    1.0001261   -4.5836262   -4.5836262     -3.08344  0.066075394   -4.5836262    1.5001862      1024000 
  367000    0.9998862   -4.5823417   -4.5823417   -3.0825154  0.058847153   -4.5823417    1.4998263      1024000 
  368000    1.0010282   -4.5813184   -4.5813184    -3.079779    0.0696869   -4.5813184    1.5015394      1024000 
  369000   0.99839067    -4.579875    -4.579875    -3.082292  0.068108339    -4.579875     1.497583      1024000 
  370000   0.99952311   -4.5814746   -4.5814746   -3.0821929  0.065917317   -4.5814746    1.4992817      1024000 
  371000   0.99982844   -4.5816507   -4.5816507    -3.081911  0.067734252   -4.5816507    1.4997397      1024000 
  372000    1.0001272   -4.5829693   -4.5829693   -3.0827815  0.065112646   -4.5829693    1.5001878      1024000 
  373000   0.99778928   -4.5805191   -4.5805191   -3.0838381  0.078258335   -4.5805191    1.4966809      1024000 
  374000    1.0000219   -4.5836566   -4.5836566   -3.0836268  0.069158743   -4.5836566    1.5000298      1024000 
  375000    1.0009879    -4.584626    -4.584626   -3.0831472   0.07002669    -4.584626    1.5014788      1024000 
  376000      1.00078   -4.5840132   -4.5840132   -3.0828462  0.071401364   -4.5840132     1.501167      1024000 
  377000     1.000225   -4.5841618   -4.5841618   -3.0838273  0.070686645   -4.5841618    1.5003345      1024000 
  378000   0.99914078   -4.5839144   -4.5839144   -3.0852062  0.073033103   -4.5839144    1.4987082      1024000 
  379000    1.0000841   -4.5849127   -4.5849127   -3.0847895  0.066709251   -4.5849127    1.5001232      1024000 
  380000    1.0002722   -4.5838957   -4.5838957   -3.0834905  0.073222806   -4.5838957    1.5004052      1024000 
  381000    1.0006646   -4.5856007   -4.5856007   -3.0846068  0.069069946   -4.5856007    1.5009939      1024000 
  382000    1.0020899   -4.5858815   -4.5858815   -3.0827497  0.070911033   -4.5858815    1.5031319      1024000 
  383000    1.0001465    -4.585826    -4.585826   -3.0856092  0.064547667    -4.585826    1.5002168      1024000 
  384000   0.99902577   -4.5844042   -4.5844042   -3.0858685  0.069539396   -4.5844042    1.4985356      1024000 
  385000    1.0009145   -4.5862536   -4.5862536   -3.0848849  0.065832204   -4.5862536    1.5013687      1024000 
  386000    1.0006968   -4.5855015   -4.5855015   -3.0844593   0.06376061   -4.5855015    1.5010422      1024000 
  387000   0.99926065   -4.5864182   -4.5864182   -3.0875303  0.065176091   -4.5864182     1.498888      1024000 
  388000    0.9986526   -4.5850082   -4.5850082   -3.0870323  0.066913731   -4.5850082    1.4979759      1024000 
  389000   0.99766451   -4.5835143   -4.5835143   -3.0870205  0.076012996   -4.5835143    1.4964938      1024000 
  390000   0.99910951   -4.5849261   -4.5849261   -3.0862649   0.07136722   -4.5849261    1.4986613      1024000 
  391000   0.99885191   -4.5837576   -4.5837576   -3.0854827  0.068463738   -4.5837576    1.4982749      1024000 
  392000    1.0000995   -4.5856363   -4.5856363   -3.0854901  0.067488494   -4.5856363    1.5001462      1024000 
  393000   0.99974358   -4.5849041   -4.5849041   -3.0852917  0.064554056   -4.5849041    1.4996124      1024000 
  394000   0.99916194   -4.5858812   -4.5858812   -3.0871413  0.066457511   -4.5858812    1.4987399      1024000 
  395000     1.000388   -4.5859006   -4.5859006   -3.0853217  0.068494479   -4.5859006     1.500579      1024000 
  396000     1.001093   -4.5847653   -4.5847653   -3.0831288  0.075270137   -4.5847653    1.5016365      1024000 
  397000    1.0006817   -4.5862018   -4.5862018   -3.0851822  0.066846667   -4.5862018    1.5010195      1024000 
  398000   0.99885315   -4.5858781   -4.5858781   -3.0876013  0.066944069   -4.5858781    1.4982767      1024000 
  399000   0.99949823   -4.5843671   -4.5843671   -3.0851228  0.069026854   -4.5843671    1.4992443      1024000 
  400000   0.99925479   -4.5847134   -4.5847134   -3.0858342  0.066685203   -4.5847134    1.4988792      1024000 
  401000    1.0002121   -4.5850731   -4.5850731    -3.084758    0.0685989   -4.5850731    1.5003151      1024000 
  402000   0.99961281   -4.5854345   -4.5854345   -3.0860183   0.06363337   -4.5854345    1.4994162      1024000 
  403000   0.99951375   -4.5849497   -4.5849497   -3.0856821  0.060510635   -4.5849497    1.4992676      1024000 
  404000    0.9995436   -4.5842556   -4.5842556   -3.0849432  0.067099343   -4.5842556    1.4993124      1024000 
  405000   0.99851895   -4.5841843   -4.5841843   -3.0864088  0.063576956   -4.5841843    1.4977754      1024000 
  406000    0.9984533   -4.5844073   -4.5844073   -3.0867304  0.064100507   -4.5844073     1.497677      1024000 
  407000   0.99807807   -4.5846095   -4.5846095   -3.0874954  0.063254479   -4.5846095    1.4971141      1024000 
  408000   0.99947926   -4.5854477   -4.5854477   -3.0862318  0.067401431   -4.5854477    1.4992159      1024000 
  409000   0.99789454    -4.584044    -4.584044   -3.0872052  0.067790168    -4.584044    1.4968388      1024000 
  410000   0.99856362   -4.5838146   -4.5838146   -3.0859722  0.064833863   -4.5838146    1.4978424      1024000 
  411000    0.9976065   -4.5836896   -4.5836896   -3.0872829  0.064959812   -4.5836896    1.4964068      1024000 
  412000   0.99786603   -4.5846166   -4.5846166   -3.0878205  0.070154273   -4.5846166     1.496796      1024000 
  413000   0.99947456   -4.5868924   -4.5868924   -3.0876836  0.063391859   -4.5868924    1.4992088      1024000 
  414000   0.99804346   -4.5849613   -4.5849613   -3.0878991  0.068905532   -4.5849613    1.4970622      1024000 
  415000   0.99840292   -4.5851072   -4.5851072   -3.0875059  0.065004855   -4.5851072    1.4976014      1024000 
  416000   0.99929382   -4.5857544   -4.5857544   -3.0868167  0.066793051   -4.5857544    1.4989377      1024000 
  417000    1.0000961   -4.5865126   -4.5865126   -3.0863715  0.064515227   -4.5865126    1.5001412      1024000 
  418000   0.99965048   -4.5877177   -4.5877177    -3.088245  0.066803498   -4.5877177    1.4994727      1024000 
  419000   0.99822881   -4.5853573   -4.5853573   -3.0880171  0.070353795   -4.5853573    1.4973402      1024000 
  420000   0.99950762   -4.5860128   -4.5860128   -3.0867544  0.069236307   -4.5860128    1.4992584      1024000 
  421000   0.99907949   -4.5859965   -4.5859965   -3.0873803  0.070848123   -4.5859965    1.4986162      1024000 
  422000    1.0003409   -4.5884114   -4.5884114   -3.0879031  0.063996185   -4.5884114    1.5005083      1024000 
  423000   0.99999109   -4.5882222   -4.5882222   -3.0882386  0.064031956   -4.5882222    1.4999836      1024000 
  424000   0.99864966   -4.5854957   -4.5854957   -3.0875242  0.064729436   -4.5854957    1.4979715      1024000 
  425000   0.99925943   -4.5872309   -4.5872309   -3.0883448  0.069510508   -4.5872309    1.4988861      1024000 
  426000   0.99886881   -4.5866245   -4.5866245   -3.0883242  0.073915909   -4.5866245    1.4983002      1024000 
  427000   0.99876187   -4.5866111   -4.5866111   -3.0884713   0.07326174   -4.5866111    1.4981398      1024000 
  428000   0.99859974    -4.588026    -4.588026   -3.0901294  0.065629824    -4.588026    1.4978966      1024000 
  429000    0.9997836    -4.588201    -4.588201   -3.0885286  0.065520895    -4.588201    1.4996724      1024000 
  430000   0.99927992   -4.5876039   -4.5876039    -3.088687  0.071727274   -4.5876039    1.4989169      1024000 
  431000   0.99860774   -4.5887284   -4.5887284   -3.0908198  0.065864641   -4.5887284    1.4979086      1024000 
  432000   0.99832341   -4.5868174   -4.5868174   -3.0893353  0.069276972   -4.5868174    1.4974821      1024000 
  433000   0.99833796    -4.586366    -4.586366   -3.0888621  0.067445499    -4.586366    1.4975039      1024000 
  434000   0.99895119   -4.5869859   -4.5869859   -3.0885621  0.067480389   -4.5869859    1.4984238      1024000 
  435000   0.99830431   -4.5881945   -4.5881945   -3.0907411  0.063564403   -4.5881945    1.4974535      1024000 
  436000   0.99804443   -4.5878709   -4.5878709   -3.0908072  0.066637735   -4.5878709    1.4970636      1024000 
  437000   0.99885318   -4.5883369   -4.5883369   -3.0900601  0.067324276   -4.5883369    1.4982768      1024000 
  438000   0.99943693   -4.5883215   -4.5883215   -3.0891692   0.06752746   -4.5883215    1.4991524      1024000 
  439000   0.99797212   -4.5870994   -4.5870994   -3.0901442   0.06902415   -4.5870994    1.4969552      1024000 
  440000   0.99854176   -4.5877333   -4.5877333   -3.0899237  0.068503753   -4.5877333    1.4978096      1024000 
  441000    0.9978691   -4.5885277   -4.5885277   -3.0917271  0.065551592   -4.5885277    1.4968007      1024000 
  442000   0.99936058   -4.5886236   -4.5886236   -3.0895858  0.060428985   -4.5886236    1.4990379      1024000 
  443000   0.99796368   -4.5878667   -4.5878667   -3.0909242  0.064855269   -4.5878667    1.4969425      1024000 
  444000   0.99679521   -4.5878045   -4.5878045   -3.0926147  0.065055714   -4.5878045    1.4951898      1024000 
  445000   0.99806701   -4.5884788   -4.5884788   -3.0913813  0.070047913   -4.5884788    1.4970975      1024000 
  446000    1.0001628   -4.5904879   -4.5904879   -3.0902467  0.064519055   -4.5904879    1.5002413      1024000 
  447000   0.99955687   -4.5897775   -4.5897775   -3.0904452  0.069973111   -4.5897775    1.4993323      1024000 
  448000   0.99937732   -4.5894505   -4.5894505   -3.0903875  0.071010463   -4.5894505     1.499063      1024000 
  449000   0.99933859   -4.5903379   -4.5903379    -3.091333  0.063749015   -4.5903379    1.4990049      1024000 
  450000   0.99814104   -4.5881943   -4.5881943   -3.0909858  0.074027204   -4.5881943    1.4972086      1024000 
  451000   0.99889792   -4.5880235   -4.5880235   -3.0896797  0.074696493   -4.5880235    1.4983439      1024000 
  452000   0.99936704   -4.5898939   -4.5898939   -3.0908463  0.063471023   -4.5898939    1.4990476      1024000 
  453000   0.99862386   -4.5885492   -4.5885492   -3.0906165  0.071203048   -4.5885492    1.4979328      1024000 
  454000   0.99866153   -4.5873221   -4.5873221   -3.0893328  0.075567795   -4.5873221    1.4979893      1024000 
  455000   0.99945157   -4.5884004   -4.5884004    -3.089226  0.065578335   -4.5884004    1.4991743      1024000 
  456000   0.99818654   -4.5879529   -4.5879529   -3.0906761   0.06864085   -4.5879529    1.4972768      1024000 
  457000   0.99911038   -4.5879252   -4.5879252   -3.0892627  0.068727003   -4.5879252    1.4986626      1024000 
  458000   0.99906652   -4.5880347   -4.5880347    -3.089438  0.065797144   -4.5880347    1.4985968      1024000 
  459000   0.99834466   -4.5893569   -4.5893569   -3.0918429  0.064037103   -4.5893569     1.497514      1024000 
  460000     0.998422   -4.5878601   -4.5878601   -3.0902301   0.06662528   -4.5878601      1.49763      1024000 
  461000   0.99800326   -4.5866707   -4.5866707   -3.0896688  0.071956548   -4.5866707    1.4970019      1024000 
  462000   0.99902975   -4.5888866   -4.5888866    -3.090345  0.067591243   -4.5888866    1.4985416      1024000 
  463000   0.99871606   -4.5868074   -4.5868074   -3.0887363  0.069071774   -4.5868074    1.4980711      1024000 
  464000   0.99912419   -4.5882602   -4.5882602   -3.0895769  0.068422237   -4.5882602    1.4986833      1024000 
  465000   0.99948994   -4.5886726   -4.5886726   -3.0894407  0.065625882   -4.5886726    1.4992319      1024000 
  466000   0.99848722    -4.588077    -4.588077   -3.0903492  0.060101895    -4.588077    1.4977278      1024000 
  467000   0.99725479   -4.5859293   -4.5859293   -3.0900501  0.070623739   -4.5859293    1.4958792      1024000 
  468000   0.99824167   -4.5876472   -4.5876472   -3.0902877   0.06597892   -4.5876472    1.4973595      1024000 
  469000   0.99716805   -4.5862929   -4.5862929   -3.0905438  0.066811813   -4.5862929    1.4957491      1024000 
  470000   0.99837503   -4.5863319   -4.5863319   -3.0887723  0.063019962   -4.5863319    1.4975596      1024000 
  471000   0.99724372   -4.5867154   -4.5867154   -3.0908528  0.064122173   -4.5867154    1.4958626      1024000 
  472000   0.99711717   -4.5864428   -4.5864428     -3.09077  0.058192715   -4.5864428    1.4956728      1024000 
  473000   0.99806056   -4.5870125   -4.5870125   -3.0899247   0.06488922   -4.5870125    1.4970878      1024000 
  474000   0.99711236    -4.586631    -4.586631   -3.0909654  0.070874479    -4.586631    1.4956655      1024000 
  475000     0.996585   -4.5871863   -4.5871863   -3.0923118  0.066093229   -4.5871863    1.4948745      1024000 
  476000   0.99896039   -4.5885052   -4.5885052   -3.0900676  0.067281451   -4.5885052    1.4984376      1024000 
  477000   0.99984095   -4.5884461   -4.5884461   -3.0886877  0.072515912   -4.5884461    1.4997584      1024000 
  478000   0.99733737   -4.5877936   -4.5877936   -3.0917905  0.066986941   -4.5877936    1.4960031      1024000 
  479000   0.99770128   -4.5863545   -4.5863545   -3.0898055  0.069857511   -4.5863545    1.4965489      1024000 
  480000   0.99776464   -4.5875526   -4.5875526   -3.0909087  0.062174074   -4.5875526     1.496644      1024000 
  481000   0.99732866    -4.585539    -4.585539   -3.0895491  0.068882525    -4.585539      1.49599      1024000 
  482000   0.99815366   -4.5876713   -4.5876713   -3.0904438  0.062476933   -4.5876713    1.4972275      1024000 
  483000   0.99757335   -4.5872695   -4.5872695   -3.0909125  0.067583724   -4.5872695     1.496357      1024000 
  484000   0.99774961   -4.5875958   -4.5875958   -3.0909744   0.06740819   -4.5875958    1.4966214      1024000 
  485000   0.99893184   -4.5876183   -4.5876183   -3.0892235  0.070565722   -4.5876183    1.4983948      1024000 
  486000   0.99945865   -4.5885773   -4.5885773   -3.0893924  0.067609417   -4.5885773     1.499185      1024000 
  487000   0.99899816   -4.5885294   -4.5885294   -3.0900351  0.069973634   -4.5885294    1.4984942      1024000 
  488000   0.99836778   -4.5878067   -4.5878067    -3.090258  0.072434594   -4.5878067    1.4975487      1024000 
  489000    1.0009252   -4.5902723   -4.5902723   -3.0888876  0.067152449   -4.5902723    1.5013848      1024000 
  490000    1.0003839   -4.5895001   -4.5895001   -3.0889272  0.068403886   -4.5895001    1.5005729      1024000 
  491000      1.00022   -4.5904219   -4.5904219    -3.090095   0.06752032   -4.5904219     1.500327      1024000 
  492000   0.99962591   -4.5883264   -4.5883264   -3.0888906  0.074036242   -4.5883264    1.4994359      1024000 
  493000   0.99850299   -4.5883607   -4.5883607   -3.0906092  0.071694618   -4.5883607    1.4977515      1024000 
  494000   0.99743715   -4.5889313   -4.5889313   -3.0927785  0.070103394   -4.5889313    1.4961527      1024000 
  495000   0.99908215   -4.5878551   -4.5878551   -3.0892349  0.069123387   -4.5878551    1.4986202      1024000 
  496000   0.99827591   -4.5857674   -4.5857674   -3.0883565  0.066738036   -4.5857674    1.4974109      1024000 
  497000   0.99765488   -4.5878217   -4.5878217   -3.0913424  0.060266674   -4.5878217    1.4964793      1024000 
  498000   0.99904115   -4.5875174   -4.5875174   -3.0889587  0.062202355   -4.5875174    1.4985587      1024000 
  499000   0.99829867   -4.5870604   -4.5870604   -3.0896153  0.070116879   -4.5870604     1.497445      1024000 
  500000   0.99635559   -4.5857617   -4.5857617   -3.0912313  0.073783123   -4.5857617    1.4945304      1024000 
  501000   0.99839242   -4.5894357   -4.5894357   -3.0918501  0.067401097   -4.5894357    1.4975856      1024000 
  502000   0.99738383    -4.587046    -4.587046   -3.0909733  0.067583964    -4.587046    1.4960727      1024000 
  503000   0.99633358     -4.58606     -4.58606   -3.0915626  0.068094025     -4.58606    1.4944974      1024000 
  504000   0.99825009   -4.5865432   -4.5865432   -3.0891711  0.063617147   -4.5865432    1.4973721      1024000 
  505000   0.99728948   -4.5866267   -4.5866267   -3.0906954  0.060683425   -4.5866267    1.4959312      1024000 
  506000   0.99754922   -4.5875979   -4.5875979   -3.0912771  0.060995477   -4.5875979    1.4963208      1024000 
  507000   0.99673643    -4.584874    -4.584874   -3.0897723  0.066644463    -4.584874    1.4951017      1024000 
  508000   0.99720946   -4.5846804   -4.5846804   -3.0888692  0.070303895   -4.5846804    1.4958112      1024000 
  509000   0.99639281   -4.5855474   -4.5855474   -3.0909612  0.065787439   -4.5855474    1.4945862      1024000 
  510000   0.99812623   -4.5869344   -4.5869344    -3.089748  0.058932704   -4.5869344    1.4971863      1024000 
  511000   0.99688909    -4.586373    -4.586373   -3.0910424  0.066654383    -4.586373    1.4953306      1024000 
  512000   0.99662697   -4.5862834   -4.5862834   -3.0913459  0.072067229   -4.5862834    1.4949375      1024000 
  513000    0.9977719   -4.5849547   -4.5849547   -3.0882998  0.065761671   -4.5849547    1.4966549      1024000 
  514000    0.9976449   -4.5850789   -4.5850789   -3.0886145  0.068127967   -4.5850789    1.4964644      1024000 
  515000   0.99846838   -4.5871521   -4.5871521   -3.0894525  0.063246961   -4.5871521    1.4976996      1024000 
  516000   0.99809119   -4.5866421   -4.5866421   -3.0895083  0.069640712   -4.5866421    1.4971338      1024000 
  517000    0.9980351   -4.5860944   -4.5860944   -3.0890447  0.067664018   -4.5860944    1.4970496      1024000 
  518000   0.99870203   -4.5879256   -4.5879256   -3.0898756  0.069971484   -4.5879256      1.49805      1024000 
  519000   0.99735117   -4.5872586   -4.5872586   -3.0912349   0.06414646   -4.5872586    1.4960238      1024000 
  520000    0.9978501   -4.5866629   -4.5866629   -3.0898908  0.067130035   -4.5866629    1.4967721      1024000 
  521000   0.99750521   -4.5852838   -4.5852838   -3.0890289  0.071229446   -4.5852838    1.4962548      1024000 
  522000    0.9980753   -4.5874272   -4.5874272   -3.0903173   0.06535092   -4.5874272    1.4971099      1024000 
  523000   0.99769515    -4.586679    -4.586679   -3.0901392  0.065488948    -4.586679    1.4965397      1024000 
  524000   0.99619289   -4.5856305   -4.5856305   -3.0913442  0.067559193   -4.5856305    1.4942863      1024000 
  525000   0.99782716   -4.5859667   -4.5859667    -3.089229  0.071122318   -4.5859667    1.4967377      1024000 
  526000   0.99705008   -4.5861724   -4.5861724   -3.0906003  0.074144567   -4.5861724    1.4955721      1024000 
  527000   0.99997474   -4.5900884   -4.5900884   -3.0901293  0.059590114   -4.5900884    1.4999591      1024000 
  528000   0.99753034   -4.5875536   -4.5875536   -3.0912611  0.067238302   -4.5875536    1.4962925      1024000 
  529000   0.99885747   -4.5878481   -4.5878481   -3.0895649  0.062348095   -4.5878481    1.4982832      1024000 
  530000   0.99731629   -4.5884643   -4.5884643   -3.0924929   0.06443926   -4.5884643    1.4959714      1024000 
  531000   0.99803088   -4.5877169   -4.5877169   -3.0906736  0.069272473   -4.5877169    1.4970433      1024000 
  532000    0.9983589   -4.5882752   -4.5882752   -3.0907399  0.072918869   -4.5882752    1.4975353      1024000 
  533000   0.99724124   -4.5873413   -4.5873413   -3.0914825  0.070170055   -4.5873413    1.4958589      1024000 
  534000   0.99925502   -4.5891197   -4.5891197   -3.0902401  0.067778574   -4.5891197    1.4988795      1024000 
  535000   0.99612135   -4.5871407   -4.5871407   -3.0929617  0.068978279   -4.5871407     1.494179      1024000 
  536000   0.99694048   -4.5878371   -4.5878371   -3.0924294  0.065912459   -4.5878371    1.4954077      1024000 
  537000   0.99834563   -4.5883574   -4.5883574   -3.0908419  0.069147344   -4.5883574    1.4975154      1024000 
  538000   0.99778962   -4.5879437   -4.5879437   -3.0912622  0.068935253   -4.5879437    1.4966814      1024000 
  539000    0.9965986   -4.5875982   -4.5875982   -3.0927033  0.067653016   -4.5875982    1.4948949      1024000 
  540000   0.99804297   -4.5908355   -4.5908355   -3.0937741  0.064404229   -4.5908355    1.4970615      1024000 
  541000   0.99693498   -4.5871953   -4.5871953   -3.0917958  0.070350768   -4.5871953    1.4953995      1024000 
  542000   0.99695499   -4.5878552   -4.5878552   -3.0924257  0.069200973   -4.5878552    1.4954295      1024000 
  543000   0.99533281    -4.587749    -4.587749   -3.0947528  0.071918608    -4.587749    1.4929962      1024000 
  544000   0.99823373   -4.5916008   -4.5916008   -3.0942532  0.063897775   -4.5916008    1.4973476      1024000 
  545000   0.99709829   -4.5893746   -4.5893746   -3.0937302  0.071590621   -4.5893746    1.4956444      1024000 
  546000   0.99704404   -4.5914633   -4.5914633   -3.0959002  0.068976375   -4.5914633    1.4955631      1024000 
  547000   0.99694676   -4.5905191   -4.5905191    -3.095102  0.069692586   -4.5905191    1.4954171      1024000 
  548000   0.99693515   -4.5899228   -4.5899228   -3.0945231  0.069070974   -4.5899228    1.4953997      1024000 
  549000   0.99591514   -4.5890325   -4.5890325   -3.0951628  0.068927307   -4.5890325    1.4938697      1024000 
  550000   0.99597752   -4.5885106   -4.5885106   -3.0945473  0.070046926   -4.5885106    1.4939633      1024000 
  551000   0.99767577   -4.5914676   -4.5914676   -3.0949569  0.071393784   -4.5914676    1.4965107      1024000 
  552000   0.99596443   -4.5902132   -4.5902132   -3.0962695  0.069783164   -4.5902132    1.4939437      1024000 
  553000   0.99675186   -4.5911015   -4.5911015   -3.0959767  0.071574498   -4.5911015    1.4951248      1024000 
  554000   0.99749041   -4.5927042   -4.5927042   -3.0964716  0.060327812   -4.5927042    1.4962326      1024000 
  555000   0.99798878    -4.592184    -4.592184   -3.0952038  0.069830347    -4.592184    1.4969802      1024000 
  556000   0.99684817   -4.5926487   -4.5926487   -3.0973795  0.067637319   -4.5926487    1.4952693      1024000 
  557000   0.99748835   -4.5928763   -4.5928763   -3.0966468  0.071254181   -4.5928763    1.4962295      1024000 
  558000    0.9981395   -4.5934329   -4.5934329   -3.0962266  0.071163653   -4.5934329    1.4972063      1024000 
  559000   0.99691527   -4.5920891   -4.5920891   -3.0967192  0.074634646   -4.5920891    1.4953699      1024000 
  560000   0.99662492   -4.5932912   -4.5932912   -3.0983568  0.067958495   -4.5932912    1.4949344      1024000 
  561000   0.99815608   -4.5931714   -4.5931714   -3.0959403  0.071263183   -4.5931714    1.4972311      1024000 
  562000   0.99605304   -4.5920225   -4.5920225    -3.097946  0.073678377   -4.5920225    1.4940766      1024000 
  563000   0.99624036   -4.5910968   -4.5910968   -3.0967392  0.072877534   -4.5910968    1.4943575      1024000 
  564000   0.99533523   -4.5921754   -4.5921754   -3.0991755  0.067318633   -4.5921754    1.4929998      1024000 
  565000   0.99697706   -4.5911039   -4.5911039   -3.0956413  0.076898894   -4.5911039    1.4954626      1024000 
  566000   0.99752974    -4.591912    -4.591912   -3.0956204  0.074294952    -4.591912    1.4962916      1024000 
  567000   0.99683852   -4.5926647   -4.5926647   -3.0974099    0.0715017   -4.5926647    1.4952548      1024000 
  568000   0.99806289   -4.5918518   -4.5918518   -3.0947605  0.068657319   -4.5918518    1.4970913      1024000 
  569000   0.99702578   -4.5923825   -4.5923825   -3.0968468   0.06739783   -4.5923825    1.4955357      1024000 
  570000   0.99740881   -4.5913737   -4.5913737   -3.0952635  0.069000281   -4.5913737    1.4961102      1024000 
  571000   0.99722507   -4.5907723   -4.5907723   -3.0949377  0.071773801   -4.5907723    1.4958346      1024000 
  572000   0.99723365   -4.5911219   -4.5911219   -3.0952744  0.069326171   -4.5911219    1.4958475      1024000 
  573000   0.99783104   -4.5904556   -4.5904556   -3.0937121  0.074850835   -4.5904556    1.4967436      1024000 
  574000   0.99722747   -4.5897636   -4.5897636   -3.0939253  0.073876345   -4.5897636    1.4958382      1024000 
  575000   0.99772199   -4.5904392   -4.5904392   -3.0938592  0.067921972   -4.5904392      1.49658      1024000 
  576000   0.99835564   -4.5916118   -4.5916118   -3.0940813  0.067974214   -4.5916118    1.4975305      1024000 
  577000   0.99687467   -4.5899182   -4.5899182   -3.0946092  0.071252049   -4.5899182     1.495309      1024000 
  578000   0.99851463   -4.5916308   -4.5916308   -3.0938619  0.061471426   -4.5916308    1.4977689      1024000 
  579000   0.99531602   -4.5885445   -4.5885445   -3.0955735  0.065539524   -4.5885445     1.492971      1024000 
  580000   0.99555789    -4.589214    -4.589214   -3.0958802   0.06395189    -4.589214    1.4933338      1024000 
  581000   0.99793942   -4.5905842   -4.5905842    -3.093678  0.064242063   -4.5905842    1.4969061      1024000 
  582000   0.99656156   -4.5876846   -4.5876846   -3.0928452  0.068182884   -4.5876846    1.4948393      1024000 
  583000   0.99552834    -4.588083    -4.588083   -3.0947935  0.064542263    -4.588083    1.4932895      1024000 
  584000   0.99553745   -4.5867149   -4.5867149   -3.0934117  0.067701726   -4.5867149    1.4933032      1024000 
  585000   0.99587132   -4.5878338   -4.5878338   -3.0940298  0.069679881   -4.5878338     1.493804      1024000 
  586000   0.99589852   -4.5885334   -4.5885334   -3.0946886  0.067337344   -4.5885334    1.4938448      1024000 
  587000   0.99533594   -4.5880916   -4.5880916   -3.0950907  0.065873359   -4.5880916    1.4930009      1024000 
  588000   0.99669043   -4.5904088   -4.5904088   -3.0953761  0.064645347   -4.5904088    1.4950327      1024000 
  589000   0.99642142    -4.588511    -4.588511   -3.0938819  0.070144773    -4.588511    1.4946291      1024000 
  590000   0.99794082   -4.5904402   -4.5904402    -3.093532  0.070144231   -4.5904402    1.4969082      1024000 
  591000   0.99861507   -4.5906227   -4.5906227   -3.0927031     0.069108   -4.5906227    1.4979196      1024000 
  592000   0.99586584   -4.5889413   -4.5889413   -3.0951455  0.074685186   -4.5889413    1.4937958      1024000 
  593000    0.9972684   -4.5907168   -4.5907168   -3.0948172  0.066299712   -4.5907168    1.4958996      1024000 
  594000    0.9991469   -4.5927631   -4.5927631   -3.0940457  0.064920549   -4.5927631    1.4987173      1024000 
  595000   0.99684478   -4.5913503   -4.5913503   -3.0960861  0.070919068   -4.5913503    1.4952642      1024000 
  596000   0.99792968   -4.5934423   -4.5934423   -3.0965507  0.068161706   -4.5934423    1.4968915      1024000 
  597000   0.99857637   -4.5937788   -4.5937788   -3.0959172  0.061857432   -4.5937788    1.4978616      1024000 
  598000   0.99791171   -4.5926424   -4.5926424   -3.0957779  0.066411499   -4.5926424    1.4968646      1024000 
  599000   0.99614664   -4.5926475   -4.5926475   -3.0984305  0.067158857   -4.5926475     1.494217      1024000 
  600000   0.99714725   -4.5936065   -4.5936065   -3.0978886  0.066557584   -4.5936065    1.4957179      1024000 
  601000    0.9980308   -4.5943887   -4.5943887   -3.0973455   0.06731238   -4.5943887    1.4970432      1024000 
  602000   0.99795242   -4.5936917   -4.5936917    -3.096766  0.070600227   -4.5936917    1.4969256      1024000 
  603000   0.99784781   -4.5923428   -4.5923428    -3.095574  0.075750563   -4.5923428    1.4967687      1024000 
  604000   0.99721946   -4.5924774   -4.5924774   -3.0966512  0.070892325   -4.5924774    1.4958262      1024000 
  605000   0.99842488   -4.5928265   -4.5928265   -3.0951922  0.071121207   -4.5928265    1.4976343      1024000 
  606000   0.99725341   -4.5919086   -4.5919086   -3.0960315  0.074306172   -4.5919086    1.4958771      1024000 
  607000   0.99711245    -4.592948    -4.592948   -3.0972824  0.073997302    -4.592948    1.4956657      1024000 
  608000   0.99920566   -4.5938282   -4.5938282   -3.0950227   0.06964268   -4.5938282    1.4988055      1024000 
  609000   0.99691537   -4.5905672   -4.5905672   -3.0951971  0.077553416   -4.5905672    1.4953701      1024000 
  610000   0.99793323   -4.5923591   -4.5923591   -3.0954623  0.072320376   -4.5923591    1.4968968      1024000 
  611000   0.99782259   -4.5915739   -4.5915739    -3.094843  0.070289204   -4.5915739    1.4967309      1024000 
  612000   0.99624029   -4.5900657   -4.5900657   -3.0957082   0.07777155   -4.5900657    1.4943574      1024000 
  613000   0.99773359   -4.5915397   -4.5915397   -3.0949423  0.067916768   -4.5915397    1.4965974      1024000 
  614000   0.99680573   -4.5920822   -4.5920822   -3.0968766  0.063344996   -4.5920822    1.4952056      1024000 
  615000   0.99608464   -4.5900871   -4.5900871   -3.0959631  0.067585508   -4.5900871     1.494124      1024000 
  616000   0.99589592   -4.5898984   -4.5898984   -3.0960575  0.067797603   -4.5898984    1.4938409      1024000 
  617000   0.99467264   -4.5890541   -4.5890541   -3.0970481  0.066367569   -4.5890541     1.492006      1024000 
  618000   0.99510857   -4.5889292   -4.5889292   -3.0962693  0.065414214   -4.5889292    1.4926599      1024000 
  619000     0.994654   -4.5889974   -4.5889974   -3.0970194  0.062555175   -4.5889974     1.491978      1024000 
  620000   0.99616297   -4.5903513   -4.5903513   -3.0961099  0.061869157   -4.5903513    1.4942415      1024000 
  621000   0.99524348    -4.589324    -4.589324   -3.0964618  0.063237552    -4.589324    1.4928622      1024000 
  622000   0.99548665   -4.5897801   -4.5897801   -3.0965531  0.064949205   -4.5897801     1.493227      1024000 
  623000   0.99602297   -4.5902791   -4.5902791   -3.0962476  0.065874831   -4.5902791    1.4940315      1024000 
  624000   0.99667574   -4.5892468   -4.5892468   -3.0942362   0.06423771   -4.5892468    1.4950106      1024000 
  625000   0.99663945   -4.5917968   -4.5917968   -3.0968406  0.060538463   -4.5917968    1.4949562      1024000 
  626000   0.99528435   -4.5873739   -4.5873739   -3.0944504  0.072279484   -4.5873739    1.4929235      1024000 
  627000   0.99777802   -4.5902532   -4.5902532   -3.0935892   0.06618479   -4.5902532     1.496664      1024000 
  628000   0.99711301   -4.5909619   -4.5909619   -3.0952954  0.063244517   -4.5909619    1.4956665      1024000 
  629000    0.9976081   -4.5894171   -4.5894171   -3.0930079   0.06763233   -4.5894171    1.4964092      1024000 
  630000   0.99809615   -4.5905514   -4.5905514   -3.0934102  0.062666385   -4.5905514    1.4971412      1024000 
  631000   0.99812389   -4.5895941   -4.5895941   -3.0924113  0.064141369   -4.5895941    1.4971828      1024000 
  632000   0.99608633   -4.5869898   -4.5869898   -3.0928633  0.070145093   -4.5869898    1.4941265      1024000 
  633000   0.99685339   -4.5878182   -4.5878182   -3.0925411  0.069165977   -4.5878182    1.4952771      1024000 
  634000   0.99741678    -4.588868    -4.588868   -3.0927459  0.067572497    -4.588868    1.4961222      1024000 
  635000   0.99654392   -4.5893045   -4.5893045   -3.0944917  0.065739907   -4.5893045    1.4948129      1024000 
  636000   0.99763473   -4.5905772   -4.5905772   -3.0941281  0.064912574   -4.5905772    1.4964491      1024000 
  637000   0.99630012   -4.5898955   -4.5898955   -3.0954483  0.063518159   -4.5898955    1.4944472      1024000 
  638000    0.9965021   -4.5896808   -4.5896808   -3.0949307  0.066446025   -4.5896808    1.4947502      1024000 
  639000   0.99506405   -4.5899894   -4.5899894   -3.0973963  0.061615119   -4.5899894    1.4925931      1024000 
  640000   0.99605166    -4.589846    -4.589846   -3.0957715  0.064489403    -4.589846    1.4940745      1024000 
  641000   0.99607057   -4.5894895   -4.5894895   -3.0953867  0.064476848   -4.5894895    1.4941029      1024000 
  642000   0.99560434   -4.5884371   -4.5884371   -3.0950336  0.064405242   -4.5884371    1.4934035      1024000 
  643000   0.99340866    -4.586763    -4.586763    -3.096653  0.063811477    -4.586763      1.49011      1024000 
  644000   0.99549072   -4.5888637   -4.5888637   -3.0956306  0.065776897   -4.5888637    1.4932331      1024000 
  645000   0.99610324   -4.5890459   -4.5890459   -3.0948941  0.064871471   -4.5890459    1.4941519      1024000 
  646000   0.99506677    -4.589608    -4.589608   -3.0970108  0.065446276    -4.589608    1.4925972      1024000 
  647000   0.99727632   -4.5910985   -4.5910985    -3.095187  0.063358978   -4.5910985    1.4959115      1024000 
  648000   0.99533363   -4.5891848   -4.5891848   -3.0961873  0.068510897   -4.5891848    1.4929975      1024000 
  649000   0.99728802   -4.5907791   -4.5907791   -3.0948501  0.070253369   -4.5907791     1.495929      1024000 
  650000   0.99767601   -4.5917047   -4.5917047   -3.0951937  0.072217449   -4.5917047     1.496511      1024000 
  651000   0.99683458   -4.5906468   -4.5906468   -3.0953979  0.073619081   -4.5906468    1.4952489      1024000 
  652000    0.9976931   -4.5914635   -4.5914635   -3.0949269  0.070471923   -4.5914635    1.4965367      1024000 
  653000   0.99649401   -4.5924786   -4.5924786   -3.0977406  0.068000687   -4.5924786     1.494738      1024000 
  654000   0.99871905    -4.594539    -4.594539   -3.0964635  0.062297384    -4.594539    1.4980756      1024000 
  655000   0.99801352   -4.5929555   -4.5929555   -3.0959382  0.064444562   -4.5929555    1.4970173      1024000 
  656000   0.99527967   -4.5907763   -4.5907763   -3.0978598  0.067425688   -4.5907763    1.4929165      1024000 
  657000   0.99669857   -4.5909543   -4.5909543   -3.0959094  0.073509595   -4.5909543    1.4950449      1024000 
  658000   0.99660428   -4.5922081   -4.5922081   -3.0973047  0.069902261   -4.5922081    1.4949034      1024000 
  659000   0.99596415   -4.5917518   -4.5917518   -3.0978086  0.067997011   -4.5917518    1.4939432      1024000 
  660000   0.99759686   -4.5927626   -4.5927626   -3.0963703   0.07272928   -4.5927626    1.4963923      1024000 
  661000   0.99749225   -4.5924451   -4.5924451   -3.0962097  0.066146592   -4.5924451    1.4962354      1024000 
  662000   0.99645902    -4.591997    -4.591997   -3.0973114  0.069848299    -4.591997    1.4946855      1024000 
  663000   0.99546446   -4.5923493   -4.5923493   -3.0991556  0.069725149   -4.5923493    1.4931937      1024000 
  664000   0.99605054    -4.591735    -4.591735   -3.0976622  0.070379815    -4.591735    1.4940728      1024000 
  665000    0.9963993   -4.5916786   -4.5916786   -3.0970827   0.07013635   -4.5916786     1.494596      1024000 
  666000    0.9952989   -4.5926629   -4.5926629   -3.0997176  0.062900936   -4.5926629    1.4929454      1024000 
  667000   0.99559145   -4.5916869   -4.5916869   -3.0983028  0.068662694   -4.5916869    1.4933842      1024000 
  668000   0.99470462   -4.5914634   -4.5914634   -3.0994095  0.068934038   -4.5914634    1.4920539      1024000 
  669000   0.99636659   -4.5926986   -4.5926986   -3.0981517  0.067576178   -4.5926986    1.4945469      1024000 
  670000   0.99567877   -4.5925421   -4.5925421   -3.0990269  0.069448731   -4.5925421    1.4935152      1024000 
  671000   0.99487352   -4.5908042   -4.5908042   -3.0984969  0.069015952   -4.5908042    1.4923073      1024000 
  672000   0.99572384   -4.5912872   -4.5912872   -3.0977044  0.065590406   -4.5912872    1.4935828      1024000 
  673000   0.99619824   -4.5933764   -4.5933764   -3.0990821  0.059936266   -4.5933764    1.4942944      1024000 
  674000   0.99653253   -4.5919682   -4.5919682   -3.0971724  0.067372437   -4.5919682    1.4947958      1024000 
  675000   0.99397075   -4.5904441   -4.5904441   -3.0994909  0.067552767   -4.5904441    1.4909531      1024000 
  676000   0.99526548   -4.5910868   -4.5910868   -3.0981916  0.068680726   -4.5910868    1.4928952      1024000 
  677000   0.99619146   -4.5932267   -4.5932267   -3.0989425   0.06711995   -4.5932267    1.4942842      1024000 
  678000   0.99564994   -4.5932451   -4.5932451   -3.0997732  0.073768115   -4.5932451    1.4934719      1024000 
  679000   0.99605894   -4.5936756   -4.5936756   -3.0995901   0.07002541   -4.5936756    1.4940854      1024000 
  680000   0.99651209   -4.5935277   -4.5935277   -3.0987626  0.069415474   -4.5935277    1.4947651      1024000 
  681000   0.99504937   -4.5912751   -4.5912751    -3.098704  0.072528072   -4.5912751    1.4925711      1024000 
  682000   0.99507164   -4.5933365   -4.5933365   -3.1007321  0.066798558   -4.5933365    1.4926045      1024000 
  683000   0.99520557   -4.5929546   -4.5929546   -3.1001492  0.071002988   -4.5929546    1.4928054      1024000 
  684000    0.9947933   -4.5925581   -4.5925581   -3.1003711  0.066418953   -4.5925581     1.492187      1024000 
[...]
  837000   0.99669492   -4.5888748   -4.5888748   -3.0938354  0.071868931   -4.5888748    1.4950394      1024000 
  838000   0.99815794   -4.5909975   -4.5909975   -3.0937636  0.065570961   -4.5909975    1.4972339      1024000 
  839000   0.99546707   -4.5878114   -4.5878114   -3.0946137  0.069478132   -4.5878114    1.4931976      1024000 
  840000   0.99558195    -4.587775    -4.587775   -3.0944051  0.068384915    -4.587775    1.4933699      1024000 
  841000   0.99715496   -4.5904132   -4.5904132   -3.0946838  0.068029576   -4.5904132    1.4957294      1024000 
  842000   0.99557646    -4.588087    -4.588087   -3.0947253  0.065946765    -4.588087    1.4933617      1024000 
  843000   0.99646887   -4.5899174   -4.5899174   -3.0952171  0.068825793   -4.5899174    1.4947003      1024000 
  844000   0.99563252   -4.5884844   -4.5884844   -3.0950386   0.06962852   -4.5884844    1.4934458      1024000 
  845000   0.99607982   -4.5882358   -4.5882358    -3.094119    0.0752754   -4.5882358    1.4941167      1024000 
  846000   0.99707917   -4.5883684   -4.5883684   -3.0927527  0.074590036   -4.5883684    1.4956158      1024000 
  847000   0.99608897   -4.5877067   -4.5877067   -3.0935763  0.070434627   -4.5877067    1.4941305      1024000 
  848000   0.99820181   -4.5905886   -4.5905886   -3.0932889  0.063935333   -4.5905886    1.4972997      1024000 
  849000   0.99453859   -4.5887367   -4.5887367   -3.0969318  0.070196498   -4.5887367    1.4918049      1024000 
  850000   0.99741382   -4.5908948   -4.5908948    -3.094777  0.070177026   -4.5908948    1.4961177      1024000 
  851000   0.99615425   -4.5898678   -4.5898678   -3.0956394  0.064803095   -4.5898678    1.4942284      1024000 
  852000   0.99612004   -4.5879647   -4.5879647   -3.0937876  0.071043258   -4.5879647    1.4941771      1024000 
  853000   0.99657487   -4.5894152   -4.5894152   -3.0945558  0.068126187   -4.5894152    1.4948593      1024000 
  854000   0.99643916   -4.5891933   -4.5891933   -3.0945376  0.071928409   -4.5891933    1.4946558      1024000 
  855000   0.99655199   -4.5889889   -4.5889889   -3.0941639  0.071377041   -4.5889889     1.494825      1024000 
  856000   0.99786485    -4.591296    -4.591296   -3.0945017  0.067735954    -4.591296    1.4967943      1024000 
  857000   0.99717231   -4.5893275   -4.5893275    -3.093572  0.072699766   -4.5893275    1.4957555      1024000 
  858000    0.9974087   -4.5885226   -4.5885226   -3.0924126  0.075051917   -4.5885226    1.4961101      1024000 
  859000   0.99783264   -4.5900682   -4.5900682   -3.0933222  0.076075966   -4.5900682     1.496746      1024000 
  860000   0.99782415   -4.5893416   -4.5893416   -3.0926083  0.070950989   -4.5893416    1.4967332      1024000 
  861000   0.99626561   -4.5862746   -4.5862746   -3.0918792  0.074418513   -4.5862746    1.4943954      1024000 
  862000   0.99635784   -4.5886887   -4.5886887   -3.0941549  0.071623347   -4.5886887    1.4945338      1024000 
  863000   0.99784271   -4.5898276   -4.5898276   -3.0930665  0.072437393   -4.5898276    1.4967611      1024000 
  864000    0.9971528   -4.5898573   -4.5898573   -3.0941311  0.067142776   -4.5898573    1.4957262      1024000 
  865000   0.99687903   -4.5882285   -4.5882285   -3.0929129  0.070572082   -4.5882285    1.4953156      1024000 
  866000   0.99684039   -4.5876348   -4.5876348   -3.0923772  0.068815103   -4.5876348    1.4952576      1024000 
  867000     0.995411    -4.586613    -4.586613   -3.0934995  0.069375076    -4.586613    1.4931135      1024000 
  868000   0.99496678   -4.5862362   -4.5862362   -3.0937891  0.067939277   -4.5862362    1.4924472      1024000 
  869000   0.99665404    -4.587031    -4.587031   -3.0920529  0.070499795    -4.587031    1.4949781      1024000 
  870000   0.99676998   -4.5874658   -4.5874658   -3.0923138  0.068148071   -4.5874658     1.495152      1024000 
  871000   0.99694088   -4.5859855   -4.5859855   -3.0905771  0.071826337   -4.5859855    1.4954083      1024000 
  872000   0.99676656   -4.5864493   -4.5864493   -3.0913024  0.069514586   -4.5864493    1.4951468      1024000 
  873000   0.99775688   -4.5881743   -4.5881743   -3.0915419  0.073544933   -4.5881743    1.4966323      1024000 
  874000   0.99606291   -4.5857187   -4.5857187   -3.0916273   0.07384946   -4.5857187    1.4940914      1024000 
  875000   0.99631949   -4.5846811   -4.5846811   -3.0902049  0.072641146   -4.5846811    1.4944762      1024000 
  876000   0.99784754    -4.587719    -4.587719   -3.0909507  0.068516465    -4.587719    1.4967683      1024000 
  877000   0.99719197   -4.5868581   -4.5868581   -3.0910732  0.069132697   -4.5868581     1.495785      1024000 
  878000   0.99602492   -4.5858113   -4.5858113   -3.0917769   0.07163365   -4.5858113    1.4940344      1024000 
  879000   0.99631127   -4.5853264   -4.5853264   -3.0908625  0.066341968   -4.5853264    1.4944639      1024000 
  880000   0.99586778   -4.5862832   -4.5862832   -3.0924846  0.064625575   -4.5862832    1.4937987      1024000 
  881000   0.99554305   -4.5855574   -4.5855574   -3.0922459  0.064240275   -4.5855574    1.4933116      1024000 
  882000   0.99657041   -4.5857258   -4.5857258   -3.0908732  0.073556158   -4.5857258    1.4948526      1024000 
  883000   0.99551976   -4.5871941   -4.5871941   -3.0939175  0.065726203   -4.5871941    1.4932767      1024000 
  884000   0.99685626   -4.5864384   -4.5864384    -3.091157  0.070988981   -4.5864384    1.4952814      1024000 
  885000   0.99624008    -4.586269    -4.586269   -3.0919118  0.065314925    -4.586269    1.4943571      1024000 
  886000   0.99649993   -4.5862735   -4.5862735   -3.0915266  0.069272767   -4.5862735    1.4947469      1024000 
  887000    0.9968364   -4.5864552   -4.5864552   -3.0912036  0.069161129   -4.5864552    1.4952516      1024000 
  888000   0.99710726     -4.58544     -4.58544   -3.0897821  0.068742979     -4.58544    1.4956579      1024000 
  889000   0.99662493   -4.5871257   -4.5871257   -3.0921913  0.067380507   -4.5871257    1.4949344      1024000 
  890000   0.99615707   -4.5863249   -4.5863249   -3.0920923  0.066848085   -4.5863249    1.4942326      1024000 
  891000   0.99594646   -4.5841496   -4.5841496   -3.0902329  0.077047889   -4.5841496    1.4939167      1024000 
  892000   0.99617509   -4.5842751   -4.5842751   -3.0900155  0.070756992   -4.5842751    1.4942596      1024000 
  893000   0.99651132   -4.5848147   -4.5848147   -3.0900507   0.06816043   -4.5848147     1.494764      1024000 
  894000   0.99724714   -4.5874698   -4.5874698   -3.0916021  0.063387809   -4.5874698    1.4958677      1024000 
  895000    0.9957647   -4.5852479   -4.5852479   -3.0916039  0.071665392   -4.5852479    1.4936441      1024000 
  896000   0.99596451   -4.5855692   -4.5855692   -3.0916254  0.073653819   -4.5855692    1.4939438      1024000 
  897000   0.99536859    -4.584614    -4.584614   -3.0915641  0.070544754    -4.584614    1.4930499      1024000 
  898000   0.99727271    -4.587546    -4.587546     -3.09164  0.067832028    -4.587546    1.4959061      1024000 
  899000   0.99699097   -4.5867804   -4.5867804   -3.0912969   0.06993128   -4.5867804    1.4954835      1024000 
  900000   0.99691235     -4.58624     -4.58624   -3.0908745  0.068295975     -4.58624    1.4953655      1024000 
  901000   0.99569661   -4.5869877   -4.5869877   -3.0934458   0.06360393   -4.5869877    1.4935419      1024000 
  902000   0.99725236   -4.5872205   -4.5872205    -3.091345  0.063446572   -4.5872205    1.4958755      1024000 
  903000   0.99560822   -4.5852778   -4.5852778   -3.0918685  0.067275202   -4.5852778    1.4934093      1024000 
  904000   0.99783929   -4.5881415   -4.5881415   -3.0913856  0.059948184   -4.5881415    1.4967559      1024000 
  905000   0.99694046   -4.5872263   -4.5872263   -3.0918186  0.064255546   -4.5872263    1.4954077      1024000 
  906000   0.99520693   -4.5845873   -4.5845873   -3.0917799  0.065393114   -4.5845873    1.4928074      1024000 
  907000   0.99710947   -4.5866022   -4.5866022   -3.0909409  0.065995783   -4.5866022    1.4956612      1024000 
  908000   0.99532856   -4.5875696   -4.5875696   -3.0945797   0.06418318   -4.5875696    1.4929898      1024000 
  909000   0.99571038   -4.5872208   -4.5872208   -3.0936582  0.065530839   -4.5872208    1.4935626      1024000 
  910000   0.99612773   -4.5890624   -4.5890624   -3.0948738  0.062947726   -4.5890624    1.4941886      1024000 
  911000   0.99610841   -4.5870202   -4.5870202   -3.0928605  0.066266922   -4.5870202    1.4941596      1024000 
  912000    0.9952217   -4.5850689   -4.5850689   -3.0922394  0.068635902   -4.5850689    1.4928296      1024000 
  913000   0.99652453   -4.5871263   -4.5871263   -3.0923425  0.061890238   -4.5871263    1.4947838      1024000 
  914000   0.99661574   -4.5874284   -4.5874284   -3.0925078  0.067029541   -4.5874284    1.4949206      1024000 
  915000   0.99522596   -4.5856751   -4.5856751   -3.0928392  0.066634449   -4.5856751     1.492836      1024000 
  916000   0.99644811   -4.5862224   -4.5862224   -3.0915533   0.06591639   -4.5862224    1.4946692      1024000 
  917000   0.99542633   -4.5871928   -4.5871928   -3.0940563  0.065114376   -4.5871928    1.4931365      1024000 
  918000   0.99589678   -4.5878904   -4.5878904   -3.0940482  0.070195722   -4.5878904    1.4938422      1024000 
  919000   0.99671789   -4.5882026   -4.5882026   -3.0931288  0.071092542   -4.5882026    1.4950738      1024000 
  920000   0.99638004   -4.5859537   -4.5859537   -3.0913867  0.076268682   -4.5859537    1.4945671      1024000 
  921000   0.99693186   -4.5875097   -4.5875097   -3.0921149  0.076589687   -4.5875097    1.4953948      1024000 
  922000   0.99744426   -4.5869638   -4.5869638   -3.0908004    0.0740018   -4.5869638    1.4961634      1024000 
  923000   0.99789178   -4.5871642   -4.5871642   -3.0903295  0.073557115   -4.5871642    1.4968347      1024000 
  924000   0.99703137   -4.5867964   -4.5867964   -3.0912524  0.071881593   -4.5867964    1.4955441      1024000 
  925000   0.99773953   -4.5880705   -4.5880705   -3.0914642   0.07975726   -4.5880705    1.4966063      1024000 
  926000   0.99709399   -4.5864505   -4.5864505   -3.0908125  0.074074948   -4.5864505     1.495638      1024000 
  927000   0.99942525   -4.5891531   -4.5891531   -3.0900182   0.07427183   -4.5891531    1.4991349      1024000 
  928000   0.99896221   -4.5870938   -4.5870938   -3.0886535  0.076566216   -4.5870938    1.4984403      1024000 
  929000   0.99834096   -4.5876073   -4.5876073   -3.0900989  0.072958679   -4.5876073    1.4975084      1024000 
  930000   0.99718971    -4.587769    -4.587769   -3.0919874  0.066983608    -4.587769    1.4957816      1024000 
  931000   0.99688843   -4.5863752   -4.5863752   -3.0910456  0.074302196   -4.5863752    1.4953297      1024000 
  932000   0.99779533   -4.5865097   -4.5865097   -3.0898197  0.073312912   -4.5865097      1.49669      1024000 
  933000   0.99640272   -4.5849099   -4.5849099   -3.0903088  0.072630743   -4.5849099    1.4946011      1024000 
  934000   0.99674159   -4.5859126   -4.5859126   -3.0908033  0.069446945   -4.5859126    1.4951094      1024000 
  935000   0.99675761   -4.5870691   -4.5870691   -3.0919357   0.06620037   -4.5870691    1.4951334      1024000 
  936000   0.99696695   -4.5869895   -4.5869895   -3.0915421  0.063694578   -4.5869895    1.4954474      1024000 
  937000   0.99598293    -4.586498    -4.586498   -3.0925266  0.069201337    -4.586498    1.4939714      1024000 
  938000   0.99527917    -4.583905    -4.583905   -3.0909892  0.067995411    -4.583905    1.4929158      1024000 
  939000   0.99653181   -4.5838101   -4.5838101   -3.0890154  0.071309044   -4.5838101    1.4947947      1024000 
  940000    0.9964497   -4.5832773   -4.5832773   -3.0886058  0.070976217   -4.5832773    1.4946716      1024000 
  941000   0.99660888   -4.5852353   -4.5852353    -3.090325  0.063797858   -4.5852353    1.4949103      1024000 
  942000   0.99709062   -4.5843547   -4.5843547   -3.0887218  0.066328764   -4.5843547    1.4956329      1024000 
  943000   0.99709452   -4.5840784   -4.5840784   -3.0884396  0.064042738   -4.5840784    1.4956388      1024000 
  944000   0.99594775    -4.583609    -4.583609   -3.0896904  0.065930942    -4.583609    1.4939186      1024000 
  945000   0.99553738   -4.5828755   -4.5828755   -3.0895724   0.07069611   -4.5828755    1.4933031      1024000 
  946000   0.99660672   -4.5837543   -4.5837543   -3.0888473   0.06567844   -4.5837543    1.4949071      1024000 
  947000   0.99536361   -4.5812585   -4.5812585   -3.0882161  0.062976043   -4.5812585    1.4930424      1024000 
  948000   0.99539816   -4.5814771   -4.5814771   -3.0883829  0.067718457   -4.5814771    1.4930942      1024000 
  949000   0.99639443   -4.5828553   -4.5828553   -3.0882667  0.064124387   -4.5828553    1.4945887      1024000 
  950000   0.99631916   -4.5840396   -4.5840396   -3.0895638  0.066299758   -4.5840396    1.4944757      1024000 
  951000    0.9976073   -4.5857231   -4.5857231   -3.0893152  0.061568833   -4.5857231     1.496408      1024000 
  952000   0.99658498   -4.5833346   -4.5833346   -3.0884601  0.059933604   -4.5833346    1.4948745      1024000 
  953000   0.99685743   -4.5829183   -4.5829183   -3.0876352  0.062001068   -4.5829183    1.4952832      1024000 
  954000   0.99622062   -4.5834251   -4.5834251   -3.0890972  0.064482671   -4.5834251    1.4943279      1024000 
  955000   0.99513878   -4.5821979   -4.5821979   -3.0894927  0.068209142   -4.5821979    1.4927052      1024000 
  956000    0.9952139   -4.5824531   -4.5824531   -3.0896352  0.067277386   -4.5824531    1.4928179      1024000 
  957000   0.99659868   -4.5840986   -4.5840986   -3.0892036  0.065472857   -4.5840986     1.494895      1024000 
  958000   0.99635425   -4.5842541   -4.5842541   -3.0897257   0.06428593   -4.5842541    1.4945284      1024000 
  959000   0.99591545   -4.5832681   -4.5832681   -3.0893979  0.067055246   -4.5832681    1.4938702      1024000 
  960000    0.9977409   -4.5850198   -4.5850198   -3.0884114  0.068589399   -4.5850198    1.4966084      1024000 
  961000   0.99742934   -4.5855836   -4.5855836   -3.0894426  0.068461568   -4.5855836     1.496141      1024000 
  962000   0.99668389   -4.5847751   -4.5847751   -3.0897523  0.070524973   -4.5847751    1.4950228      1024000 
  963000   0.99653595   -4.5856991   -4.5856991   -3.0908982  0.065715582   -4.5856991    1.4948009      1024000 
  964000   0.99818565   -4.5854274   -4.5854274    -3.088152  0.073178816   -4.5854274    1.4972755      1024000 
  965000   0.99857403   -4.5879636   -4.5879636   -3.0901056  0.070264392   -4.5879636     1.497858      1024000 
  966000   0.99688197     -4.58635     -4.58635     -3.09103  0.078577914     -4.58635      1.49532      1024000 
  967000   0.99770895   -4.5886587   -4.5886587   -3.0920983  0.070278985   -4.5886587    1.4965604      1024000 
  968000   0.99786924   -4.5866747   -4.5866747   -3.0898738  0.072355891   -4.5866747    1.4968009      1024000 
  969000   0.99865094   -4.5880193   -4.5880193   -3.0900458  0.069522624   -4.5880193    1.4979734      1024000 
  970000   0.99878164   -4.5898581   -4.5898581   -3.0916886  0.070411269   -4.5898581    1.4981695      1024000 
  971000    0.9979906   -4.5886609   -4.5886609    -3.091678  0.069735444   -4.5886609    1.4969829      1024000 
  972000   0.99637579   -4.5874719   -4.5874719   -3.0929112  0.067528653   -4.5874719    1.4945607      1024000 
  973000   0.99597445   -4.5857689   -4.5857689   -3.0918102  0.072386394   -4.5857689    1.4939587      1024000 
  974000   0.99700437   -4.5863309   -4.5863309   -3.0908273  0.069274811   -4.5863309    1.4955036      1024000 
  975000   0.99745538   -4.5888631   -4.5888631    -3.092683  0.068278492   -4.5888631    1.4961801      1024000 
  976000   0.99747343   -4.5872954   -4.5872954   -3.0910883  0.069581761   -4.5872954    1.4962071      1024000 
  977000   0.99727351   -4.5872016   -4.5872016   -3.0912943  0.069072044   -4.5872016    1.4959073      1024000 
  978000   0.99583413   -4.5843025   -4.5843025   -3.0905543  0.075743131   -4.5843025    1.4937482      1024000 
  979000   0.99787874   -4.5876647   -4.5876647   -3.0908496  0.070884057   -4.5876647    1.4968151      1024000 
  980000   0.99746883   -4.5869333   -4.5869333   -3.0907331  0.069003302   -4.5869333    1.4962002      1024000 
  981000   0.99819266   -4.5878646   -4.5878646   -3.0905786  0.073829699   -4.5878646     1.497286      1024000 
  982000   0.99820781   -4.5866852   -4.5866852   -3.0893765   0.07097755   -4.5866852    1.4973087      1024000 
  983000   0.99801882   -4.5860568   -4.5860568   -3.0890316  0.070492074   -4.5860568    1.4970252      1024000 
  984000   0.99562724   -4.5846263   -4.5846263   -3.0911884  0.069260846   -4.5846263    1.4934379      1024000 
  985000   0.99577767   -4.5848674   -4.5848674   -3.0912039  0.069558994   -4.5848674    1.4936635      1024000 
  986000   0.99600079   -4.5850306   -4.5850306   -3.0910324  0.070089076   -4.5850306    1.4939982      1024000 
  987000   0.99694641   -4.5874138   -4.5874138   -3.0919971  0.060791175   -4.5874138    1.4954166      1024000 
  988000   0.99519768   -4.5851299   -4.5851299   -3.0923364  0.066330412   -4.5851299    1.4927935      1024000 
  989000    0.9967544    -4.585214    -4.585214   -3.0900854  0.062963803    -4.585214    1.4951286      1024000 
  990000   0.99534013   -4.5860309   -4.5860309   -3.0930237  0.065899386   -4.5860309    1.4930072      1024000 
  991000   0.99577227   -4.5861099   -4.5861099   -3.0924545  0.060283286   -4.5861099    1.4936554      1024000 
  992000    0.9963891   -4.5858569   -4.5858569   -3.0912762   0.06335455   -4.5858569    1.4945807      1024000 
  993000   0.99591051   -4.5847149   -4.5847149   -3.0908521  0.062350708   -4.5847149    1.4938628      1024000 
  994000   0.99650559   -4.5861661   -4.5861661   -3.0914107  0.067667819   -4.5861661    1.4947554      1024000 
  995000   0.99577768   -4.5840363   -4.5840363   -3.0903727  0.065632795   -4.5840363    1.4936635      1024000 
  996000   0.99518536   -4.5845194   -4.5845194   -3.0917443  0.068369589   -4.5845194    1.4927751      1024000 
  997000   0.99504052   -4.5827938   -4.5827938    -3.090236  0.071515702   -4.5827938    1.4925578      1024000 
  998000   0.99756882   -4.5845611   -4.5845611   -3.0882109  0.074153083   -4.5845611    1.4963502      1024000 
  999000   0.99725281   -4.5847223   -4.5847223   -3.0888461  0.069435293   -4.5847223    1.4958762      1024000 
 1000000   0.99534607   -4.5818476   -4.5818476   -3.0888315  0.072058197   -4.5818476    1.4930161      1024000 
Loop time of 116422 on 16 procs for 1000000 steps with 499200 atoms

Performance: 1855.314 tau/day, 8.589 timesteps/s
99.7% CPU use with 16 MPI tasks x 1 OpenMP threads

MPI task timing breakdown:
Section |  min time  |  avg time  |  max time  |%varavg|  %CPU | %total
-----------------------------------------------------------------------
Pair    | 47761      | 61468      | 78681      |4133.4 |  99.8 | 52.80
Bond    | 0.66673    | 0.75046    | 0.86798    |   7.8 | 100.0 |  0.00
Neigh   | 8104       | 10762      | 13748      |1869.6 | 100.0 |  9.24
Comm    | 21601      | 41563      | 55497      |5544.5 |  99.4 | 35.70
Output  | 20.301     | 29.968     | 56.271     | 277.5 | 100.0 |  0.03
Modify  | 588.49     | 966.5      | 2084.7     |1857.6 |  99.3 |  0.83
Other   |            | 1632       |            |       |       |  1.40

Nlocal:    31200 ave 31827 max 30733 min
Histogram: 1 1 2 6 2 2 0 0 0 2
Nghost:    28895.4 ave 33167 max 24643 min
Histogram: 8 0 0 0 0 0 0 0 0 8
Neighs:    4.81703e+06 ave 5.16176e+06 max 4.1456e+06 min
Histogram: 2 1 1 0 0 0 0 7 1 4

Total # of neighbors = 77072424
Ave neighs/atom = 154.392
Ave special neighs/atom = 0
Neighbor list builds = 66684
Dangerous builds = 558
Total wall time: 32:20:23
