LAMMPS (24 Dec 2020)
OMP_NUM_THREADS environment is not set. Defaulting to 1 thread. (src/comm.cpp:94)
  using 1 OpenMP thread(s) per MPI task
#Read the equilibrated lj fluid and add nanocubes

units           lj
atom_style      full
atom_modify     map array first cubes
dimension       3
boundary        p p f
pair_style      lj/cut/opt 2.5

variable        sigma           equal 1.0
variable        epsilon         equal 1.0
read_restart	restart.dat.3000000
Reading restart file ...
  restart file = 29 Oct 2020, LAMMPS = 24 Dec 2020
  restoring atom style full from restart
  orthogonal box = (0.0000000 0.0000000 0.0000000) to (100.00000 100.00000 200.00000)
  4 by 5 by 12 MPI processor grid
  restoring pair style lj/cut/opt from restart
  1010000 atoms
Finding 1-2 1-3 1-4 neighbors ...
  special bond factors lj:    0        0        0       
  special bond factors coul:  0        0        0       
     0 = max # of 1-2 neighbors
     0 = max # of 1-3 neighbors
     0 = max # of 1-4 neighbors
     1 = max # of special neighbors
  special bonds CPU = 1.914 seconds
  read_restart CPU = 2.540 seconds

group		solvent type 1
1010000 atoms in group solvent
read_data	data490_500.cubes group cubes add append
Reading data file ...
  orthogonal box = (0.0000000 0.0000000 0.0000000) to (100.00000 100.00000 200.00000)
  4 by 5 by 12 MPI processor grid
  reading atoms ...
  560070 atoms
  reading velocities ...
  560070 velocities
Finding 1-2 1-3 1-4 neighbors ...
  special bond factors lj:    0        0        0       
  special bond factors coul:  0        0        0       
     0 = max # of 1-2 neighbors
     0 = max # of 1-3 neighbors
     0 = max # of 1-4 neighbors
     1 = max # of special neighbors
  special bonds CPU = 0.005 seconds
  read_data CPU = 1.483 seconds

neighbor      0.4 bin
neigh_modify  exclude molecule/intra cubes


pair_modify   shift yes

pair_coeff    1 1 1.0 1.0 #solvent
pair_coeff    2 2 0.6 1.0 0.7147 #np
pair_coeff    3 3 0.0 0.0 0.0 #dummy
pair_coeff    2 3 0.0 0.0 0.0 #np dummy
pair_coeff    1 2 0.8 1.0 #np solvent
pair_coeff    1 3 0.0 0.0 0.0 #dummy solvent


# delete solvent where the cubes are
delete_atoms  overlap 1.0 solvent cubes
System init for delete_atoms ...
Neighbor list info ...
  update every 1 steps, delay 10 steps, check yes
  max neighbors/atom: 2000, page size: 100000
  master list distance cutoff = 2.9
  ghost atom cutoff = 2.9
  binsize = 1.45, bins = 69 69 138
  2 neighbor lists, perpetual/occasional/extra = 1 1 0
  (1) command delete_atoms, occasional
      attributes: full, newton on
      pair build: full/bin
      stencil: full/bin/3d
      bin: standard
  (2) pair lj/cut/opt, perpetual
      attributes: half, newton on
      pair build: half/bin/newton
      stencil: half/bin/3d/newton
      bin: standard
WARNING: Delete_atoms cutoff > minimum neighbor cutoff (src/delete_atoms.cpp:307)
WARNING: Ignoring 'compress yes' for molecular system (src/delete_atoms.cpp:125)
Deleted 314345 atoms, new total = 1255725



comm_modify   mode multi cutoff/multi 1 2.5 cutoff/multi 2 2.5 cutoff/multi 3 6.95

reset_timestep 	0

balance 	1.05 shift z 10 1.05
Balancing ...
Neighbor list info ...
  update every 1 steps, delay 10 steps, check yes
  max neighbors/atom: 2000, page size: 100000
  master list distance cutoff = 2.9
  ghost atom cutoff = 6.95
  binsize = 1.45, bins = 69 69 138
  1 neighbor lists, perpetual/occasional/extra = 1 0 0
  (1) pair lj/cut/opt, perpetual
      attributes: half, newton on
      pair build: half/bin/newton
      stencil: half/bin/3d/newton
      bin: standard
 rebalancing time: 0.011 seconds
  iteration count = 4
  initial/final maximal load/proc = 8337.0000 8071.0000
  initial/final imbalance factor  = 1.5934062 1.5425670
  x cuts: 0.0000000 0.25000000 0.50000000 0.75000000 1.0000000
  y cuts: 0.0000000 0.20000000 0.40000000 0.60000000 0.80000000 1.0000000
  z cuts: 0.0000000 0.057291667 0.11979167 0.17187500 0.23958333 0.28125000 0.34375000 0.41145833 0.46354167 0.51562500 0.56250000 0.64583333 1.0000000

####################### WALLS ###########################

variable       epsilonWall equal 2*${epsilon}
variable       epsilonWall equal 2*1

variable       repulsive   equal   0.7147*${sigma}
variable       repulsive   equal   0.7147*1

variable       full	   equal   3*${sigma}
variable       full	   equal   3*1

region         lowWall block EDGE EDGE EDGE EDGE EDGE 2


fix            topWall all wall/lj93 zhi EDGE 	       ${epsilonWall} ${sigma} ${repulsive} units box
fix            topWall all wall/lj93 zhi EDGE 	       2 ${sigma} ${repulsive} units box
fix            topWall all wall/lj93 zhi EDGE 	       2 1 ${repulsive} units box
fix            topWall all wall/lj93 zhi EDGE 	       2 1 0.7147 units box

fix            lowSol solvent wall/lj93 zlo EDGE                ${epsilonWall} ${sigma} ${full} units box
fix            lowSol solvent wall/lj93 zlo EDGE                2 ${sigma} ${full} units box
fix            lowSol solvent wall/lj93 zlo EDGE                2 1 ${full} units box
fix            lowSol solvent wall/lj93 zlo EDGE                2 1 3 units box

fix 	       lowCub cubes wall/lj93 zlo EDGE                ${epsilonWall} ${sigma} ${repulsive} units box
fix 	       lowCub cubes wall/lj93 zlo EDGE                2 ${sigma} ${repulsive} units box
fix 	       lowCub cubes wall/lj93 zlo EDGE                2 1 ${repulsive} units box
fix 	       lowCub cubes wall/lj93 zlo EDGE                2 1 0.7147 units box



###################### COMPUTES ##########################

compute        bin1 solvent chunk/atom bin/1d z upper 1.0


######################  FIXES ############################


fix             peclet solvent ave/chunk 1000 1 1000 bin1 density/number norm                  none ave one file density.profile

fix              temp solvent ave/chunk 1000 1 1000 bin1 temp norm                  none ave one file temp.profile

fix             1 cubes rigid/nve/small molecule #temp ${temp} ${temp} 10
  create bodies CPU = 0.050 seconds
  490 rigid bodies with 560070 atoms
  6.9283411 = max distance from body owner to body atom

fix             2 solvent nve


## Thermostat

region          regthermo block EDGE EDGE EDGE EDGE 0 10

group           thermo dynamic solvent region regthermo every 1000
dynamic group thermo defined

fix             3 thermo langevin ${startTemp} ${temp} 10 156453
fix             3 thermo langevin 0.8 ${temp} 10 156453
fix             3 thermo langevin 0.8 1.0 10 156453



#### Load balancing

fix             bal all balance 1000 1.05 shift z 10 1.05

############### Diagnostics and computes ###################

compute        com cubes          rigid/local   1 mol x y z
compute        quat cubes         rigid/local   1 mol quatw quati quatj quatk
compute 	cc2 cubes chunk/atom molecule

compute 	msd cubes msd/chunk cc2

thermo          1000
thermo_style    custom step temp epair evdwl etotal press pe ke atoms

dump            1 all custom 100000 dump.lammpstrj id mol type x y z
dump            2 all image 10000 image.*.png type type

dump_modify     2 pad 8


dump		image cubes image 10000 image_cubes.*.png type type

dump_modify	image pad 8

dump            3 all movie 5000 movie.avi type type
dump           com cubes local 10000 dump.*.xyz c_com[*]
dump           quat cubes      local 10000 dump.*.quat c_quat[*]


restart         500000 restart.dat
timestep        0.005
timer           full
New timer settings: style=full  mode=nosync  timeout=off

run            3000000
Per MPI rank memory allocation (min/avg/max) = 17.04 | 27.90 | 30.10 Mbytes
Step Temp E_pair E_vdwl TotEng Press PotEng KinEng Atoms 
       0   0.84046065    -2.309913    -2.309913   -1.6105241  -0.13426518    -2.309913   0.69938895  1255725 
    1000   0.85246853   -2.3224107   -2.3224107   -1.6130294 -0.077136049   -2.3224107   0.70938131  1255725 
    2000   0.85876026   -2.3287331   -2.3287331   -1.6141161 -0.059696314   -2.3287331   0.71461697  1255725 
    3000   0.86428488   -2.3341839   -2.3341839   -1.6149696 -0.045406974   -2.3341839   0.71921428  1255725 
    4000   0.86809719   -2.3369455   -2.3369455   -1.6145588 -0.025144694   -2.3369455   0.72238669  1255725 
    5000   0.87118627   -2.3404505   -2.3404505   -1.6154932 -0.024816219   -2.3404505   0.72495726  1255725 
    6000   0.87354571    -2.343308    -2.343308   -1.6163873 -0.018426903    -2.343308   0.72692068  1255725 
    7000   0.87626488   -2.3462973   -2.3462973   -1.6171139   -0.0146884   -2.3462973   0.72918343  1255725 
    8000   0.87851489   -2.3492462   -2.3492462   -1.6181904 -0.012572315   -2.3492462   0.73105577  1255725 
    9000   0.88218719   -2.3530018   -2.3530018   -1.6188901  0.010509106   -2.3530018   0.73411168  1255725 
   10000   0.88521587   -2.3571718   -2.3571718   -1.6205398  0.014302751   -2.3571718   0.73663199  1255725 
   11000   0.88801329   -2.3613412   -2.3613412   -1.6223813  0.035930412   -2.3613412   0.73895986  1255725 
   12000   0.89134582   -2.3662203   -2.3662203   -1.6244873  0.044337403   -2.3662203   0.74173303  1255725 
   13000   0.89566877   -2.3711739   -2.3711739   -1.6258436  0.062794256   -2.3711739   0.74533037  1255725 
   14000   0.89796584   -2.3750579   -2.3750579    -1.627816  0.072853614   -2.3750579   0.74724188  1255725 
   15000   0.90088911   -2.3787381   -2.3787381   -1.6290636  0.088283299   -2.3787381   0.74967447  1255725 
   16000   0.90318046   -2.3807671   -2.3807671   -1.6291859   0.10228637   -2.3807671   0.75158122  1255725 
   17000   0.90336975   -2.3819372   -2.3819372   -1.6301985  0.096426229   -2.3819372   0.75173873  1255725 
   18000   0.90359094   -2.3834181   -2.3834181   -1.6314953  0.090667522   -2.3834181    0.7519228  1255725 
   19000   0.90236466   -2.3832708   -2.3832708   -1.6323685  0.091931118   -2.3832708   0.75090235  1255725 
   20000   0.90167517   -2.3822902   -2.3822902   -1.6319616  0.083585933   -2.3822902   0.75032859  1255725 
   21000   0.89747351   -2.3798372   -2.3798372    -1.633005  0.080228319   -2.3798372   0.74683218  1255725 
   22000   0.89563514   -2.3787479   -2.3787479   -1.6334455  0.056473219   -2.3787479   0.74530238  1255725 
   23000   0.89064035    -2.375156    -2.375156     -1.63401  0.036311449    -2.375156   0.74114597  1255725 
   24000     0.887218   -2.3725657   -2.3725657   -1.6342677  0.026936976   -2.3725657   0.73829806  1255725 
   25000   0.88425748   -2.3703793   -2.3703793   -1.6345448  0.012730536   -2.3703793   0.73583447  1255725 
   26000   0.87985652   -2.3666029   -2.3666029   -1.6344306 -0.0047513349   -2.3666029   0.73217221  1255725 
   27000   0.87941719   -2.3662482   -2.3662482   -1.6344416 -0.018160988   -2.3662482   0.73180663  1255725 
   28000    0.8764996   -2.3636445   -2.3636445   -1.6342657 -0.022076456   -2.3636445   0.72937875  1255725 
   29000   0.87469605   -2.3618752   -2.3618752   -1.6339972 -0.030545043   -2.3618752   0.72787793  1255725 
   30000   0.87375396   -2.3607652   -2.3607652   -1.6336712 -0.028133133   -2.3607652   0.72709397  1255725 
   31000   0.87243272   -2.3589611   -2.3589611   -1.6329666 -0.032849624   -2.3589611    0.7259945  1255725 
   32000   0.87373773   -2.3596838   -2.3596838   -1.6326033 -0.036022996   -2.3596838   0.72708046  1255725 
   33000   0.87265673   -2.3585542   -2.3585542   -1.6323732 -0.041703546   -2.3585542   0.72618091  1255725 
   34000   0.87347957   -2.3589581   -2.3589581   -1.6320925 -0.032935063   -2.3589581   0.72686564  1255725 
   35000   0.87442101   -2.3597601   -2.3597601   -1.6321111 -0.028383026   -2.3597601   0.72764905  1255725 
   36000   0.87679361    -2.361758    -2.361758   -1.6321346 -0.021952068    -2.361758   0.72962341  1255725 
   37000   0.87831787   -2.3630949   -2.3630949   -1.6322031 -0.0063376514   -2.3630949   0.73089183  1255725 
   38000   0.88025674   -2.3647347   -2.3647347   -1.6322295 -0.0036630587   -2.3647347   0.73250526  1255725 
   39000   0.88323842   -2.3674278   -2.3674278   -1.6324413 -0.0012566544   -2.3674278   0.73498646  1255725 
   40000   0.88549184   -2.3698047   -2.3698047    -1.632943  0.016220822   -2.3698047   0.73686164  1255725 
   41000   0.88639644   -2.3709253   -2.3709253   -1.6333109     0.028291   -2.3709253    0.7376144  1255725 
   42000   0.89021077   -2.3744777   -2.3744777   -1.6336892  0.026777048   -2.3744777    0.7407885  1255725 
   43000   0.89192857   -2.3767461   -2.3767461   -1.6345281  0.045445977   -2.3767461   0.74221796  1255725 
   44000   0.89404779    -2.379511    -2.379511   -1.6355295  0.042690596    -2.379511   0.74398147  1255725 
   45000    0.8957869   -2.3816725   -2.3816725   -1.6362439  0.049105376   -2.3816725   0.74542867  1255725 
   46000    0.8952752   -2.3826432   -2.3826432   -1.6376403  0.059182425   -2.3826432   0.74500286  1255725 
   47000   0.89574294   -2.3836103   -2.3836103   -1.6382182  0.068203084   -2.3836103   0.74539209  1255725 
   48000   0.89635788   -2.3848429   -2.3848429   -1.6389391  0.067581318   -2.3848429   0.74590381  1255725 
   49000   0.89555258   -2.3847849   -2.3847849   -1.6395512  0.055291756   -2.3847849   0.74523368  1255725 
   50000   0.89364368   -2.3839748   -2.3839748   -1.6403296  0.059943009   -2.3839748   0.74364519  1255725 
   51000   0.89270195   -2.3836192   -2.3836192   -1.6407576  0.045202981   -2.3836192   0.74286153  1255725 
   52000   0.89091624   -2.3826407   -2.3826407   -1.6412652  0.044466941   -2.3826407   0.74137555  1255725 
   53000   0.88845111   -2.3809933   -2.3809933   -1.6416691  0.030966097   -2.3809933   0.73932419  1255725 
   54000   0.88720216   -2.3800797   -2.3800797   -1.6417948  0.023498414   -2.3800797   0.73828488  1255725 
   55000   0.88543829   -2.3788682   -2.3788682   -1.6420512  0.022806092   -2.3788682   0.73681708  1255725 
   56000   0.88363517   -2.3772118   -2.3772118   -1.6418952   0.01438503   -2.3772118   0.73531661  1255725 
   57000   0.88309185   -2.3767563   -2.3767563   -1.6418918   0.01229112   -2.3767563   0.73486449  1255725 
   58000   0.88041424   -2.3744563   -2.3744563     -1.64182 -0.0014498384   -2.3744563   0.73263632  1255725 
   59000   0.87922348    -2.373502    -2.373502   -1.6418566 -0.013084053    -2.373502   0.73164543  1255725 
   60000   0.87769336   -2.3720382   -2.3720382    -1.641666 -0.00078481717   -2.3720382   0.73037214  1255725 
   61000   0.87734827    -2.372078    -2.372078    -1.641993 -0.0066640955    -2.372078   0.73008497  1255725 
   62000   0.87729454   -2.3719444   -2.3719444   -1.6419041 -0.014415738   -2.3719444   0.73004026  1255725 
   63000   0.87789668   -2.3728306   -2.3728306   -1.6422893 -0.020156501   -2.3728306   0.73054133  1255725 
   64000   0.87860161   -2.3734881   -2.3734881   -1.6423601 -0.0070903856   -2.3734881   0.73112794  1255725 
   65000   0.87966194    -2.374408    -2.374408   -1.6423977 -0.004819173    -2.374408   0.73201029  1255725 
   66000   0.88013153   -2.3747783   -2.3747783   -1.6423773 0.0078458555   -2.3747783   0.73240106  1255725 
   67000   0.88451263   -2.3776518   -2.3776518    -1.641605  0.012380428   -2.3776518   0.73604679  1255725 
   68000   0.88247868   -2.3761753   -2.3761753    -1.641821  0.010726201   -2.3761753   0.73435424  1255725 
   69000   0.88449572   -2.3786071   -2.3786071   -1.6425744  0.012071229   -2.3786071   0.73603272  1255725 
   70000   0.88665109   -2.3809447   -2.3809447   -1.6431183   0.01337327   -2.3809447   0.73782631  1255725 
   71000   0.88718282   -2.3818642   -2.3818642   -1.6435954  0.031247475   -2.3818642   0.73826879  1255725 
   72000    0.8871915   -2.3823066   -2.3823066   -1.6440306  0.032514289   -2.3823066   0.73827601  1255725 
   73000   0.88806875   -2.3840236   -2.3840236   -1.6450175  0.020973287   -2.3840236   0.73900602  1255725 
   74000   0.88873542     -2.38482     -2.38482   -1.6452592  0.038111975     -2.38482   0.73956078  1255725 
   75000   0.89032291   -2.3863299   -2.3863299   -1.6454481   0.05166623   -2.3863299   0.74088181  1255725 
   76000   0.89013029   -2.3865162   -2.3865162   -1.6457947  0.044469902   -2.3865162   0.74072152  1255725 
   77000   0.88936179   -2.3863639   -2.3863639   -1.6462819  0.043755247   -2.3863639   0.74008202  1255725 
   78000   0.88904303   -2.3868247   -2.3868247   -1.6470079  0.036284932   -2.3868247   0.73981676  1255725 
   79000   0.88904275   -2.3874251   -2.3874251   -1.6476086  0.046901751   -2.3874251   0.73981653  1255725 
   80000    0.8874282   -2.3868098   -2.3868098   -1.6483368  0.034145201   -2.3868098   0.73847299  1255725 
   81000   0.88734229   -2.3871245   -2.3871245    -1.648723  0.030001984   -2.3871245   0.73840149  1255725 
   82000   0.88532173   -2.3859725   -2.3859725   -1.6492524  0.023528925   -2.3859725   0.73672009  1255725 
   83000   0.88420306   -2.3852549   -2.3852549   -1.6494658  0.022255049   -2.3852549   0.73578918  1255725 
   84000   0.88295129   -2.3842034   -2.3842034   -1.6494558  0.021006176   -2.3842034   0.73474752  1255725 
   85000   0.88363009   -2.3846932   -2.3846932   -1.6493808  0.011054184   -2.3846932   0.73531239  1255725 
   86000   0.88278627    -2.383644    -2.383644   -1.6490338  0.014308595    -2.383644    0.7346102  1255725 
   87000   0.88261497   -2.3834394   -2.3834394   -1.6489718 0.0096073817   -2.3834394   0.73446766  1255725 
   88000   0.88227158   -2.3833335   -2.3833335   -1.6491516 0.0075991491   -2.3833335    0.7341819  1255725 
   89000   0.88096102   -2.3823219   -2.3823219   -1.6492306  0.002188984   -2.3823219   0.73309132  1255725 
   90000   0.88114924   -2.3823388   -2.3823388   -1.6490908   0.01511107   -2.3823388   0.73324795  1255725 
   91000   0.88125649   -2.3827315   -2.3827315   -1.6493943  0.004136084   -2.3827315    0.7333372  1255725 
   92000   0.88160343   -2.3832528   -2.3832528   -1.6496269 0.0032647983   -2.3832528    0.7336259  1255725 
   93000   0.88150918   -2.3830259   -2.3830259   -1.6494784  0.011282036   -2.3830259   0.73354748  1255725 
   94000   0.88250826   -2.3835096   -2.3835096   -1.6491307 0.0037033474   -2.3835096   0.73437886  1255725 
   95000   0.88259036   -2.3837303   -2.3837303   -1.6492831 0.0075287605   -2.3837303   0.73444717  1255725 
   96000   0.88278329   -2.3842318   -2.3842318   -1.6496241  0.017925072   -2.3842318   0.73460773  1255725 
   97000   0.88369745   -2.3854675   -2.3854675   -1.6500991  0.020760432   -2.3854675   0.73536844  1255725 
   98000   0.88422343   -2.3861815   -2.3861815   -1.6503754    0.0209318   -2.3861815   0.73580613  1255725 
   99000   0.88391345   -2.3864763   -2.3864763   -1.6509282  0.016259224   -2.3864763   0.73554818  1255725 
  100000   0.88491258   -2.3877812   -2.3877812   -1.6514016  0.025346154   -2.3877812   0.73637961  1255725 
  101000   0.88557749   -2.3887641   -2.3887641   -1.6518312  0.036083414   -2.3887641   0.73693291  1255725 
  102000   0.88441212   -2.3884133   -2.3884133   -1.6524502  0.029976443   -2.3884133   0.73596315  1255725 
  103000   0.88518325   -2.3890191   -2.3890191   -1.6524143  0.036452044   -2.3890191   0.73660484  1255725 
  104000   0.88696725   -2.3906526   -2.3906526   -1.6525632  0.032052617   -2.3906526   0.73808941  1255725 
  105000   0.88564831   -2.3896699   -2.3896699    -1.652678  0.031711657   -2.3896699   0.73699185  1255725 
  106000   0.88602478   -2.3901693   -2.3901693   -1.6528642  0.029675361   -2.3901693   0.73730513  1255725 
  107000   0.88592033   -2.3902635   -2.3902635   -1.6530453  0.025585209   -2.3902635   0.73721821  1255725 
  108000   0.88540416   -2.3903245   -2.3903245   -1.6535358  0.029877156   -2.3903245   0.73678868  1255725 
  109000   0.88514416   -2.3903721   -2.3903721   -1.6537998  0.034185485   -2.3903721   0.73657232  1255725 
  110000   0.88456614   -2.3902978   -2.3902978   -1.6542065  0.014562146   -2.3902978   0.73609132  1255725 
  111000   0.88343194   -2.3897688   -2.3897688   -1.6546214    0.0305247   -2.3897688    0.7351475  1255725 
  112000   0.88370638   -2.3901826   -2.3901826   -1.6548067  0.022177311   -2.3901826   0.73537587  1255725 
  113000   0.88276631   -2.3897486   -2.3897486    -1.655155   0.01395577   -2.3897486   0.73459359  1255725 
  114000   0.88197141   -2.3893425   -2.3893425   -1.6554104  0.010123684   -2.3893425   0.73393211  1255725 
  115000   0.88047601   -2.3886195   -2.3886195   -1.6559318  0.014613394   -2.3886195   0.73268772  1255725 
  116000   0.88108362   -2.3893485   -2.3893485   -1.6561551  0.013700266   -2.3893485   0.73319334  1255725 
  117000    0.8806156   -2.3889454   -2.3889454   -1.6561415  0.018671208   -2.3889454   0.73280388  1255725 
  118000   0.88111788   -2.3894615   -2.3894615   -1.6562396  0.018120618   -2.3894615   0.73322186  1255725 
  119000   0.88162712   -2.3900802   -2.3900802   -1.6564346  0.019181896   -2.3900802   0.73364562  1255725 
  120000   0.88138006   -2.3902129   -2.3902129   -1.6567728  0.017880861   -2.3902129   0.73344002  1255725 
  121000   0.88181216   -2.3905123   -2.3905123   -1.6567127 0.0085647835   -2.3905123    0.7337996  1255725 
  122000   0.88163762    -2.390331    -2.390331   -1.6566766  0.021341169    -2.390331   0.73365435  1255725 
  123000   0.88304313   -2.3916725   -2.3916725   -1.6568486  0.016615599   -2.3916725   0.73482395  1255725 
  124000   0.88292893   -2.3915674   -2.3915674   -1.6568385  0.015119288   -2.3915674   0.73472892  1255725 
  125000    0.8834643   -2.3918594   -2.3918594   -1.6566849  0.023540321   -2.3918594   0.73517443  1255725 
  126000   0.88439284   -2.3931866   -2.3931866   -1.6572395  0.020888769   -2.3931866   0.73594711  1255725 
  127000   0.88370182   -2.3927269   -2.3927269   -1.6573548  0.030516228   -2.3927269   0.73537208  1255725 
  128000   0.88465637   -2.3933165   -2.3933165   -1.6571501  0.021281813   -2.3933165    0.7361664  1255725 
  129000    0.8832733    -2.392512    -2.392512   -1.6574966  0.028232516    -2.392512   0.73501548  1255725 
  130000   0.88446405   -2.3938168   -2.3938168   -1.6578104  0.036552511   -2.3938168   0.73600637  1255725 
  131000   0.88307602   -2.3928401   -2.3928401   -1.6579888  0.027997945   -2.3928401   0.73485132  1255725 
  132000   0.88309702   -2.3930364   -2.3930364   -1.6581676  0.029451266   -2.3930364   0.73486879  1255725 
  133000   0.88351922   -2.3936602   -2.3936602   -1.6584401  0.028102929   -2.3936602   0.73522012  1255725 
  134000   0.88313973   -2.3937713   -2.3937713   -1.6588669  0.015793002   -2.3937713   0.73490433  1255725 
  135000   0.88532386   -2.3955526   -2.3955526   -1.6588308  0.030781155   -2.3955526   0.73672185  1255725 
  136000   0.88229576   -2.3937027   -2.3937027   -1.6595006  0.019698277   -2.3937027   0.73420202  1255725 
  137000   0.88247194    -2.393689    -2.393689   -1.6593403  0.031758683    -2.393689   0.73434863  1255725 
  138000    0.8820504   -2.3938598   -2.3938598    -1.659862  0.025733415   -2.3938598   0.73399785  1255725 
  139000   0.88155873   -2.3933712   -2.3933712   -1.6597825  0.018098929   -2.3933712   0.73358871  1255725 
  140000   0.88111413   -2.3931618   -2.3931618   -1.6599431  0.020171385   -2.3931618   0.73321873  1255725 
  141000      0.88238   -2.3942068   -2.3942068   -1.6599347  0.018292643   -2.3942068   0.73427212  1255725 
  142000   0.88047787   -2.3927801   -2.3927801   -1.6600908  0.014749519   -2.3927801   0.73268927  1255725 
  143000   0.88143612   -2.3943376   -2.3943376    -1.660851  0.016429637   -2.3943376   0.73348668  1255725 
  144000   0.88129382   -2.3943432   -2.3943432   -1.6609749 0.0098224739   -2.3943432   0.73336826  1255725 
  145000   0.87974164     -2.39304     -2.39304   -1.6609634  0.022308498     -2.39304   0.73207661  1255725 
  146000   0.88088095   -2.3939146   -2.3939146   -1.6608899  0.023913301   -2.3939146   0.73302469  1255725 
  147000   0.88076399   -2.3940275   -2.3940275   -1.6611002   0.01693493   -2.3940275   0.73292736  1255725 
  148000   0.88099525   -2.3941278   -2.3941278   -1.6610079  0.026737043   -2.3941278   0.73311981  1255725 
  149000   0.88245763   -2.3956473   -2.3956473   -1.6613106  0.017040523   -2.3956473   0.73433673  1255725 
  150000   0.88139639   -2.3954011   -2.3954011   -1.6619474  0.018639221   -2.3954011   0.73345361  1255725 
  151000    0.8808758   -2.3951669   -2.3951669   -1.6621465  0.019037817   -2.3951669    0.7330204  1255725 
  152000   0.88184018   -2.3966216   -2.3966216   -1.6627987  0.020178825   -2.3966216   0.73382291  1255725 
  153000   0.88112877   -2.3960116   -2.3960116   -1.6627807  0.018386985   -2.3960116   0.73323091  1255725 
  154000   0.88070805   -2.3957411   -2.3957411   -1.6628602  0.021735258   -2.3957411   0.73288081  1255725 
  155000   0.88100146   -2.3963039   -2.3963039    -1.663179  0.020545078   -2.3963039   0.73312497  1255725 
  156000    0.8814583   -2.3969396   -2.3969396   -1.6634345  0.023747459   -2.3969396   0.73350513  1255725 
  157000   0.88229275   -2.3974903   -2.3974903   -1.6632908  0.039490123   -2.3974903   0.73419952  1255725 
  158000   0.88235218   -2.3976376   -2.3976376   -1.6633886  0.021442072   -2.3976376   0.73424898  1255725 
  159000   0.88249647   -2.3979052   -2.3979052   -1.6635362  0.030468594   -2.3979052   0.73436905  1255725 
  160000   0.88277258   -2.3981121   -2.3981121   -1.6635133  0.027584863   -2.3981121   0.73459881  1255725 
  161000   0.88248397   -2.3981658   -2.3981658   -1.6638072  0.030848118   -2.3981658   0.73435864  1255725 
  162000   0.88160395   -2.3975852   -2.3975852   -1.6639589  0.021966289   -2.3975852   0.73362633  1255725 
  163000   0.88144482   -2.3976562   -2.3976562   -1.6641623  0.027203014   -2.3976562   0.73349391  1255725 
  164000   0.88132966    -2.397769    -2.397769   -1.6643709  0.016238739    -2.397769   0.73339808  1255725 
  165000   0.88172044   -2.3981924   -2.3981924   -1.6644692  0.022321103   -2.3981924   0.73372327  1255725 
  166000   0.88121461   -2.3981714   -2.3981714   -1.6648691  0.023677855   -2.3981714   0.73330234  1255725 
  167000   0.88128867    -2.398155    -2.398155   -1.6647911  0.029334565    -2.398155   0.73336397  1255725 
  168000   0.88033806   -2.3977211   -2.3977211   -1.6651482  0.025278846   -2.3977211   0.73257292  1255725 
  169000   0.88122921   -2.3985351   -2.3985351   -1.6652206  0.028852756   -2.3985351    0.7333145  1255725 
  170000   0.88092337   -2.3985531   -2.3985531   -1.6654931   0.01517973   -2.3985531   0.73305999  1255725 
  171000   0.88106332   -2.3990503   -2.3990503   -1.6658738  0.025758754   -2.3990503   0.73317645  1255725 
  172000    0.8808326   -2.3992104   -2.3992104    -1.666226  0.014203001   -2.3992104   0.73298446  1255725 
  173000   0.88141035    -2.400051    -2.400051   -1.6665858   0.01966297    -2.400051   0.73346523  1255725 
  174000   0.88037989   -2.3990042   -2.3990042   -1.6663964  0.020235014   -2.3990042   0.73260773  1255725 
  175000   0.88048438   -2.3987532   -2.3987532   -1.6660585  0.016264723   -2.3987532   0.73269469  1255725 
  176000   0.88023401   -2.3984736   -2.3984736   -1.6659872  0.025364729   -2.3984736   0.73248634  1255725 
  177000   0.88035367   -2.3987944   -2.3987944   -1.6662085  0.025392052   -2.3987944   0.73258592  1255725 
  178000   0.88133902   -2.3996714   -2.3996714   -1.6662655  0.018577588   -2.3996714   0.73340587  1255725 
  179000   0.88018288   -2.3991574   -2.3991574   -1.6667136  0.018801867   -2.3991574   0.73244379  1255725 
  180000   0.88094362   -2.3995379   -2.3995379   -1.6664611  0.018058216   -2.3995379   0.73307684  1255725 
  181000   0.88114695   -2.3995603   -2.3995603   -1.6663142  0.014274652   -2.3995603   0.73324604  1255725 
  182000   0.88032449    -2.399115    -2.399115   -1.6665533  0.012646155    -2.399115   0.73256163  1255725 
  183000   0.88081159   -2.3996263   -2.3996263   -1.6666594  0.019846714   -2.3996263   0.73296697  1255725 
  184000   0.88029882   -2.3994347   -2.3994347   -1.6668944  0.022073242   -2.3994347   0.73254027  1255725 
  185000   0.88029345   -2.3998929   -2.3998929   -1.6673571   0.01998176   -2.3998929    0.7325358  1255725 
  186000   0.87979204   -2.3993217   -2.3993217   -1.6672032  0.023895285   -2.3993217   0.73211856  1255725 
  187000   0.87918066    -2.398754    -2.398754   -1.6671443  0.029477038    -2.398754   0.73160979  1255725 
  188000   0.88001479   -2.3993615   -2.3993615   -1.6670576  0.023932169   -2.3993615   0.73230392  1255725 
  189000   0.87952719   -2.3988714   -2.3988714   -1.6669732  0.027682309   -2.3988714   0.73189816  1255725 
  190000   0.88053085   -2.3998189   -2.3998189   -1.6670856  0.027337751   -2.3998189   0.73273335  1255725 
  191000    0.8792548   -2.3991127   -2.3991127   -1.6674412  0.019336946   -2.3991127   0.73167149  1255725 
  192000   0.88119069    -2.400937    -2.400937   -1.6676546  0.027167677    -2.400937   0.73328244  1255725 
  193000   0.87992872    -2.399565    -2.399565   -1.6673327  0.026769165    -2.399565   0.73223229  1255725 
  194000   0.88140486   -2.4010762   -2.4010762   -1.6676155  0.021643044   -2.4010762   0.73346066  1255725 
  195000   0.87938558   -2.4000398   -2.4000398   -1.6682595  0.026660557   -2.4000398   0.73178032  1255725 
  196000   0.88027848   -2.4007607   -2.4007607   -1.6682373  0.022212561   -2.4007607   0.73252335  1255725 
  197000   0.87947575   -2.4001922   -2.4001922   -1.6683369   0.02884295   -2.4001922   0.73185536  1255725 
  198000   0.88120728   -2.4019656   -2.4019656   -1.6686693  0.022914314   -2.4019656   0.73329625  1255725 
  199000   0.88023094   -2.4013181   -2.4013181   -1.6688343  0.020746893   -2.4013181   0.73248379  1255725 
  200000   0.87997908   -2.4015364   -2.4015364   -1.6692622  0.022221275   -2.4015364    0.7322742  1255725 
  201000   0.87923627   -2.4011541   -2.4011541   -1.6694981  0.020723472   -2.4011541   0.73165607  1255725 
  202000   0.87933635   -2.4014182   -2.4014182   -1.6696789  0.023641904   -2.4014182   0.73173935  1255725 
  203000   0.87872007   -2.4007905   -2.4007905    -1.669564  0.029173342   -2.4007905   0.73122651  1255725 
  204000   0.88052629   -2.4024801   -2.4024801   -1.6697506  0.019026882   -2.4024801   0.73272956  1255725 
  205000   0.87952341   -2.4016829   -2.4016829   -1.6697879  0.035078488   -2.4016829   0.73189501  1255725 
  206000   0.87995149   -2.4019879   -2.4019879   -1.6697366  0.026347801   -2.4019879   0.73225124  1255725 
  207000   0.87955175   -2.4020438   -2.4020438   -1.6701252  0.026998785   -2.4020438    0.7319186  1255725 
  208000   0.87936985   -2.4019264   -2.4019264   -1.6701592  0.019276201   -2.4019264   0.73176723  1255725 
  209000   0.87932646   -2.4022685   -2.4022685   -1.6705374  0.026720059   -2.4022685   0.73173112  1255725 
  210000   0.87857318   -2.4021449   -2.4021449   -1.6710406  0.029382613   -2.4021449   0.73110428  1255725 
  211000   0.87925948    -2.402826    -2.402826   -1.6711506  0.020142223    -2.402826   0.73167539  1255725 
  212000   0.87857694   -2.4020836   -2.4020836   -1.6709762  0.031808955   -2.4020836   0.73110741  1255725 
  213000   0.87804513   -2.4015826   -2.4015826   -1.6709178  0.036497279   -2.4015826   0.73066486  1255725 
  214000   0.87923039   -2.4029345   -2.4029345   -1.6712834  0.028116477   -2.4029345   0.73165118  1255725 
  215000   0.87864493    -2.402337    -2.402337    -1.671173  0.025854327    -2.402337   0.73116399  1255725 
  216000   0.87882272   -2.4025025   -2.4025025   -1.6711905  0.025574214   -2.4025025   0.73131193  1255725 
  217000   0.87905383   -2.4023806   -2.4023806   -1.6708764  0.032515618   -2.4023806   0.73150425  1255725 
  218000   0.88044104   -2.4038552   -2.4038552   -1.6711966  0.030440265   -2.4038552   0.73265862  1255725 
  219000   0.87850646   -2.4026262   -2.4026262   -1.6715775  0.023319352   -2.4026262   0.73104876  1255725 
  220000   0.87897687   -2.4029103   -2.4029103     -1.67147  0.024957023   -2.4029103   0.73144021  1255725 
  221000   0.87890965   -2.4032558   -2.4032558   -1.6718715  0.017662475   -2.4032558   0.73138427  1255725 
  222000   0.87930011    -2.403464    -2.403464   -1.6717548  0.017670438    -2.403464    0.7317092  1255725 
  223000   0.87861245   -2.4030665   -2.4030665   -1.6719295   0.01238343   -2.4030665   0.73113696  1255725 
  224000   0.87906798   -2.4034038   -2.4034038   -1.6718877  0.024112161   -2.4034038   0.73151603  1255725 
  225000   0.87726852   -2.4017846   -2.4017846    -1.671766  0.018202042   -2.4017846   0.73001861  1255725 
  226000   0.87879246   -2.4033703   -2.4033703   -1.6720836  0.018611532   -2.4033703   0.73128675  1255725 
  227000   0.87894503   -2.4041369   -2.4041369   -1.6727232  0.020783877   -2.4041369   0.73141372  1255725 
  228000   0.87844172   -2.4034806   -2.4034806   -1.6724857  0.029795674   -2.4034806   0.73099489  1255725 
  229000   0.87829374   -2.4037751   -2.4037751   -1.6729034  0.029195661   -2.4037751   0.73087175  1255725 
  230000    0.8779367   -2.4034114   -2.4034114   -1.6728368  0.020683257   -2.4034114   0.73057464  1255725 
  231000    0.8788769   -2.4041899   -2.4041899   -1.6728329  0.022513136   -2.4041899   0.73135703  1255725 
  232000   0.87916859   -2.4043671   -2.4043671   -1.6727673  0.026979547   -2.4043671   0.73159975  1255725 
  233000   0.87922547   -2.4049265   -2.4049265   -1.6732794   0.01994406   -2.4049265   0.73164709  1255725 
  234000   0.87820443   -2.4040117   -2.4040117   -1.6732143   0.02806179   -2.4040117   0.73079743  1255725 
  235000   0.87734429   -2.4036642   -2.4036642   -1.6735826  0.027826617   -2.4036642   0.73008166  1255725 
  236000   0.87790406   -2.4042803   -2.4042803   -1.6737329  0.013628701   -2.4042803   0.73054747  1255725 
  237000   0.87787492   -2.4045549   -2.4045549   -1.6740316  0.023801466   -2.4045549   0.73052323  1255725 
  238000    0.8778235   -2.4052097   -2.4052097   -1.6747292  0.025413603   -2.4052097   0.73048043  1255725 
  239000   0.87848951   -2.4052985   -2.4052985   -1.6742639  0.016175862   -2.4052985   0.73103466  1255725 
  240000   0.87692424   -2.4040601   -2.4040601    -1.674328  0.024016531   -2.4040601   0.72973212  1255725 
  241000   0.87784147    -2.404769    -2.404769   -1.6742736  0.029713197    -2.404769   0.73049539  1255725 
  242000   0.87842211   -2.4052377   -2.4052377   -1.6742592  0.020770101   -2.4052377   0.73097857  1255725 
  243000   0.87845934   -2.4055946   -2.4055946    -1.674585   0.02558959   -2.4055946   0.73100955  1255725 
  244000   0.87741996   -2.4047305   -2.4047305   -1.6745858  0.027462701   -2.4047305   0.73014463  1255725 
  245000   0.87921518   -2.4064479   -2.4064479   -1.6748094  0.021502283   -2.4064479   0.73163852  1255725 
  246000    0.8775851   -2.4052216   -2.4052216   -1.6749395  0.042325988   -2.4052216   0.73028205  1255725 
  247000   0.87726358   -2.4052461   -2.4052461   -1.6752316  0.024259127   -2.4052461    0.7300145  1255725 
  248000   0.87773196    -2.405491    -2.405491   -1.6750868  0.025407317    -2.405491   0.73040426  1255725 
  249000   0.87755844   -2.4054601   -2.4054601   -1.6752002  0.031436296   -2.4054601   0.73025986  1255725 
  250000   0.87721502   -2.4053983   -2.4053983   -1.6754242  0.030294661   -2.4053983   0.72997409  1255725 
  251000   0.87724289   -2.4058106   -2.4058106   -1.6758133  0.025264591   -2.4058106   0.72999728  1255725 
  252000   0.87775336    -2.406326    -2.406326   -1.6759039  0.027836794    -2.406326   0.73042207  1255725 
  253000   0.87849523   -2.4068998   -2.4068998   -1.6758604   0.03306653   -2.4068998   0.73103942  1255725 
  254000    0.8776844   -2.4068689   -2.4068689   -1.6765042  0.023614754   -2.4068689   0.73036468  1255725 
  255000   0.87759169    -2.406642    -2.406642   -1.6763544    0.0265868    -2.406642   0.73028753  1255725 
  256000   0.87733377   -2.4061297   -2.4061297   -1.6760568  0.033070843   -2.4061297   0.73007291  1255725 
  257000   0.87742942   -2.4062789   -2.4062789   -1.6761264  0.031658823   -2.4062789    0.7301525  1255725 
  258000   0.87720957   -2.4062143   -2.4062143   -1.6762448  0.025627456   -2.4062143   0.72996955  1255725 
  259000   0.87690856   -2.4064284   -2.4064284   -1.6767093  0.017214043   -2.4064284   0.72971907  1255725 
  260000   0.87746016   -2.4068154   -2.4068154   -1.6766373  0.028374204   -2.4068154   0.73017808  1255725 
  261000   0.87638166   -2.4061083   -2.4061083   -1.6768276  0.027906363   -2.4061083   0.72928061  1255725 
  262000   0.87731955   -2.4067419   -2.4067419   -1.6766809  0.018881627   -2.4067419   0.73006108  1255725 
  263000   0.87684596   -2.4065001   -2.4065001   -1.6768332  0.033412632   -2.4065001   0.72966698  1255725 
  264000   0.87719695   -2.4066859   -2.4066859   -1.6767269  0.023252958   -2.4066859   0.72995905  1255725 
  265000   0.87747557   -2.4072144   -2.4072144   -1.6770235  0.026847428   -2.4072144    0.7301909  1255725 
  266000   0.87704407   -2.4073088   -2.4073088    -1.677477  0.021742688   -2.4073088   0.72983183  1255725 
  267000   0.87809707   -2.4081659   -2.4081659   -1.6774578  0.024723543   -2.4081659   0.73070809  1255725 
  268000   0.87631543   -2.4066219   -2.4066219   -1.6773964  0.017700664   -2.4066219   0.72922549  1255725 
  269000   0.87705667   -2.4072254   -2.4072254    -1.677383  0.025523004   -2.4072254   0.72984232  1255725 
  270000   0.87823588   -2.4078925   -2.4078925   -1.6770689  0.034050444   -2.4078925    0.7308236  1255725 
  271000   0.87680401   -2.4070109   -2.4070109   -1.6773789  0.019376728   -2.4070109   0.72963207  1255725 
  272000   0.87735797   -2.4077062   -2.4077062   -1.6776132  0.024506066   -2.4077062   0.73009305  1255725 
  273000   0.87706145   -2.4074429   -2.4074429   -1.6775966  0.028394117   -2.4074429   0.72984629  1255725 
  274000   0.87648651   -2.4071296   -2.4071296   -1.6777618  0.014996123   -2.4071296   0.72936786  1255725 
  275000   0.87654079   -2.4075491   -2.4075491   -1.6781361  0.026424812   -2.4075491   0.72941303  1255725 
  276000   0.87767944   -2.4083139   -2.4083139   -1.6779533  0.020483968   -2.4083139   0.73036056  1255725 
  277000   0.87664397   -2.4080711   -2.4080711   -1.6785722  0.023349153   -2.4080711   0.72949889  1255725 
  278000   0.87608778   -2.4077821   -2.4077821    -1.678746  0.031346303   -2.4077821   0.72903606  1255725 
  279000   0.87568196   -2.4078918   -2.4078918   -1.6791935  0.022269962   -2.4078918   0.72869835  1255725 
  280000    0.8765274   -2.4085345   -2.4085345   -1.6791326  0.022175116   -2.4085345   0.72940188  1255725 
  281000   0.87624948   -2.4084218   -2.4084218   -1.6792512  0.025197116   -2.4084218   0.72917062  1255725 
  282000   0.87630033   -2.4085526   -2.4085526   -1.6793397  0.028231684   -2.4085526   0.72921293  1255725 
  283000   0.87785831   -2.4100599   -2.4100599   -1.6795505  0.024337996   -2.4100599    0.7305094  1255725 
  284000   0.87608329   -2.4090132   -2.4090132   -1.6799809  0.028453971   -2.4090132   0.72903232  1255725 
  285000   0.87686891   -2.4098734   -2.4098734   -1.6801874  0.017787429   -2.4098734   0.72968607  1255725 
  286000   0.87631848   -2.4092587   -2.4092587   -1.6800307  0.027411233   -2.4092587   0.72922803  1255725 
  287000   0.87614741   -2.4088505   -2.4088505   -1.6797648  0.032905836   -2.4088505   0.72908568  1255725 
  288000   0.87710341   -2.4099657   -2.4099657   -1.6800845  0.028045063   -2.4099657   0.72988121  1255725 
  289000   0.87625984   -2.4089553   -2.4089553    -1.679776  0.025780733   -2.4089553   0.72917924  1255725 
  290000   0.87763522   -2.4097412   -2.4097412   -1.6794175  0.036582921   -2.4097412   0.73032375  1255725 
  291000   0.87733919   -2.4096448   -2.4096448   -1.6795673  0.021245282   -2.4096448   0.73007741  1255725 
  292000    0.8771052    -2.409584    -2.409584   -1.6797013  0.026782768    -2.409584    0.7298827  1255725 
  293000   0.87769935    -2.410246    -2.410246   -1.6798689  0.021605464    -2.410246   0.73037713  1255725 
  294000   0.87743593   -2.4102658   -2.4102658   -1.6801079  0.031404095   -2.4102658   0.73015792  1255725 
  295000   0.87538253     -2.40849     -2.40849   -1.6800408  0.024431201     -2.40849   0.72844918  1255725 
  296000   0.87585338   -2.4093952   -2.4093952   -1.6805542  0.022639385   -2.4093952     0.728841  1255725 
  297000   0.87573373   -2.4092408   -2.4092408   -1.6804994  0.020389632   -2.4092408   0.72874143  1255725 
  298000   0.87527385   -2.4090844   -2.4090844   -1.6807257  0.028111535   -2.4090844   0.72835875  1255725 
  299000   0.87546074   -2.4092013   -2.4092013    -1.680687  0.030048207   -2.4092013   0.72851426  1255725 
  300000   0.87541106   -2.4089196   -2.4089196   -1.6804467  0.018950716   -2.4089196   0.72847292  1255725 
  301000   0.87613437    -2.409224    -2.409224   -1.6801492  0.027639903    -2.409224   0.72907483  1255725 
  302000     0.876177   -2.4092803   -2.4092803     -1.68017  0.027598235   -2.4092803    0.7291103  1255725 
  303000   0.87600111   -2.4090423   -2.4090423   -1.6800784    0.0146628   -2.4090423   0.72896393  1255725 
  304000   0.87612565   -2.4095414   -2.4095414   -1.6804738  0.025601261   -2.4095414   0.72906757  1255725 
  305000   0.87640308   -2.4099528   -2.4099528   -1.6806543  0.020387736   -2.4099528   0.72929844  1255725 
  306000   0.87587102   -2.4096305   -2.4096305   -1.6807748  0.028916571   -2.4096305   0.72885568  1255725 
  307000   0.87600746   -2.4096957   -2.4096957   -1.6807265  0.021579224   -2.4096957   0.72896922  1255725 
  308000   0.87647838   -2.4098872   -2.4098872   -1.6805261  0.019189969   -2.4098872   0.72936109  1255725 
  309000    0.8757428   -2.4097581   -2.4097581   -1.6810091  0.023839784   -2.4097581   0.72874898  1255725 
  310000    0.8762812    -2.410207    -2.410207     -1.68101  0.020840341    -2.410207   0.72919701  1255725 
  311000   0.87543871   -2.4094676   -2.4094676   -1.6809717  0.029816077   -2.4094676   0.72849593  1255725 
  312000   0.87574377   -2.4097251   -2.4097251   -1.6809753  0.028190814   -2.4097251   0.72874979  1255725 
  313000   0.87623044   -2.4105588   -2.4105588   -1.6814041  0.029733185   -2.4105588   0.72915477  1255725 
  314000   0.87582932   -2.4103229   -2.4103229   -1.6815019  0.020602243   -2.4103229   0.72882098  1255725 
  315000   0.87539691   -2.4101519   -2.4101519   -1.6816908  0.022683122   -2.4101519   0.72846115  1255725 
  316000   0.87671615    -2.411385    -2.411385    -1.681826  0.033266158    -2.411385   0.72955895  1255725 
  317000   0.87551457   -2.4107297   -2.4107297   -1.6821706  0.017009511   -2.4107297   0.72855906  1255725 
  318000   0.87536109   -2.4106468   -2.4106468   -1.6822154  0.028434346   -2.4106468   0.72843134  1255725 
  319000   0.87487707   -2.4103801   -2.4103801   -1.6823516  0.014986913   -2.4103801   0.72802856  1255725 
  320000   0.87618539   -2.4109874   -2.4109874   -1.6818702  0.032704076   -2.4109874   0.72911729  1255725 
  321000   0.87487964   -2.4099397   -2.4099397    -1.681909  0.026811542   -2.4099397    0.7280307  1255725 
  322000   0.87715878   -2.4115978   -2.4115978   -1.6816706   0.01991819   -2.4115978   0.72992729  1255725 
  323000   0.87742574   -2.4117114   -2.4117114    -1.681562  0.024205442   -2.4117114   0.73014944  1255725 
  324000   0.87649038   -2.4111589   -2.4111589   -1.6817878  0.026977941   -2.4111589   0.72937108  1255725 
  325000   0.87546731   -2.4104367   -2.4104367    -1.681917  0.029980369   -2.4104367   0.72851973  1255725 
  326000   0.87513167   -2.4106335   -2.4106335   -1.6823931  0.022746535   -2.4106335   0.72824043  1255725 
  327000   0.87595775   -2.4113459   -2.4113459   -1.6824181  0.030959016   -2.4113459   0.72892785  1255725 
  328000   0.87594031   -2.4111172   -2.4111172   -1.6822039  0.021641398   -2.4111172   0.72891334  1255725 
  329000   0.87456916   -2.4105793   -2.4105793    -1.682807  0.027528759   -2.4105793   0.72777234  1255725 
  330000    0.8755556   -2.4114435   -2.4114435   -1.6828503  0.022480415   -2.4114435    0.7285932  1255725 
  331000     0.875355   -2.4113297   -2.4113297   -1.6829034  0.025729622   -2.4113297   0.72842627  1255725 
  332000   0.87461368   -2.4108895   -2.4108895   -1.6830801  0.024992596   -2.4108895   0.72780939  1255725 
  333000   0.87457295    -2.410796    -2.410796   -1.6830205  0.029312678    -2.410796   0.72777549  1255725 
  334000   0.87466085   -2.4108226   -2.4108226   -1.6829739  0.023632198   -2.4108226   0.72784864  1255725 
  335000   0.87476794   -2.4106332   -2.4106332   -1.6826954  0.026575957   -2.4106332   0.72793775  1255725 
  336000   0.87554948   -2.4118135   -2.4118135   -1.6832254  0.024342397   -2.4118135   0.72858811  1255725 
  337000   0.87508172    -2.411505    -2.411505   -1.6833062  0.017873616    -2.411505   0.72819887  1255725 
  338000   0.87553147    -2.411946    -2.411946   -1.6833729  0.013349384    -2.411946   0.72857312  1255725 
  339000    0.8740187   -2.4108437   -2.4108437   -1.6835294  0.021701687   -2.4108437   0.72731427  1255725 
  340000   0.87498003   -2.4117036   -2.4117036   -1.6835893  0.023466649   -2.4117036   0.72811424  1255725 
  341000   0.87521225   -2.4118044   -2.4118044    -1.683497  0.022050474   -2.4118044   0.72830749  1255725 
  342000   0.87656994    -2.412955    -2.412955   -1.6835177  0.027026319    -2.412955   0.72943729  1255725 
  343000   0.87581691    -2.412725    -2.412725   -1.6839144  0.021942947    -2.412725   0.72881065  1255725 
  344000   0.87580635   -2.4127052   -2.4127052   -1.6839033  0.019321653   -2.4127052   0.72880186  1255725 
  345000   0.87522484   -2.4122617   -2.4122617   -1.6839437  0.028939988   -2.4122617   0.72831796  1255725 
  346000   0.87512363   -2.4122826   -2.4122826   -1.6840489  0.037615548   -2.4122826   0.72823374  1255725 
  347000   0.87631451   -2.4134562   -2.4134562   -1.6842315  0.025853982   -2.4134562   0.72922473  1255725 
  348000   0.87467215   -2.4121186   -2.4121186   -1.6842605   0.02769474   -2.4121186   0.72785804  1255725 
  349000   0.87537898    -2.412762    -2.412762   -1.6843157  0.030787516    -2.412762   0.72844623  1255725 
  350000   0.87442184   -2.4117553   -2.4117553   -1.6841056  0.028452651   -2.4117553   0.72764975  1255725 
  351000   0.87513745    -2.412691    -2.412691   -1.6844458  0.032344715    -2.412691   0.72824524  1255725 
  352000   0.87484313   -2.4124257   -2.4124257   -1.6844254  0.031676386   -2.4124257   0.72800032  1255725 
  353000   0.87461867   -2.4123031   -2.4123031   -1.6844896  0.022366571   -2.4123031   0.72781354  1255725 
  354000    0.8754257   -2.4128669   -2.4128669   -1.6843818  0.025100676   -2.4128669   0.72848511  1255725 
  355000   0.87398204   -2.4121014   -2.4121014   -1.6848177  0.031114404   -2.4121014   0.72728377  1255725 
  356000   0.87423028   -2.4123498   -2.4123498   -1.6848595  0.029279019   -2.4123498   0.72749034  1255725 
  357000   0.87402877   -2.4123011   -2.4123011   -1.6849784  0.022051921   -2.4123011   0.72732265  1255725 
  358000   0.87363527    -2.411756    -2.411756   -1.6847608  0.013774776    -2.411756    0.7269952  1255725 
  359000   0.87433248   -2.4125637   -2.4125637   -1.6849883  0.025271555   -2.4125637   0.72757539  1255725 
  360000   0.87472143    -2.412628    -2.412628   -1.6847289  0.015476817    -2.412628   0.72789905  1255725 
  361000   0.87418607   -2.4123687   -2.4123687   -1.6849152  0.020105918   -2.4123687   0.72745355  1255725 
  362000   0.87431342   -2.4125949   -2.4125949   -1.6850354  0.016344441   -2.4125949   0.72755952  1255725 
  363000   0.87422854   -2.4122622   -2.4122622   -1.6847733  0.020346745   -2.4122622   0.72748889  1255725 
  364000   0.87413499   -2.4123896   -2.4123896   -1.6849785  0.025474022   -2.4123896   0.72741104  1255725 
  365000   0.87464939   -2.4129424   -2.4129424   -1.6851033  0.026190533   -2.4129424    0.7278391  1255725 
  366000   0.87501625   -2.4138138   -2.4138138   -1.6856694  0.023613589   -2.4138138   0.72814439  1255725 
  367000   0.87468259   -2.4137202   -2.4137202   -1.6858535   0.03267039   -2.4137202   0.72786673  1255725 
  368000    0.8740016   -2.4136555   -2.4136555   -1.6863554  0.028075126   -2.4136555   0.72730004  1255725 
  369000   0.87342526   -2.4134399   -2.4134399   -1.6866194  0.023191977   -2.4134399   0.72682044  1255725 
  370000   0.87510653   -2.4147655   -2.4147655    -1.686546  0.028699167   -2.4147655   0.72821951  1255725 
  371000   0.87472632   -2.4145072   -2.4145072   -1.6866041  0.026761561   -2.4145072   0.72790312  1255725 
  372000   0.87472251   -2.4144369   -2.4144369   -1.6865369  0.027829533   -2.4144369   0.72789995  1255725 
  373000   0.87450118    -2.414455    -2.414455   -1.6867392  0.032263336    -2.414455   0.72771576  1255725 
  374000   0.87390906   -2.4143888   -2.4143888   -1.6871658  0.028638277   -2.4143888   0.72722304  1255725 
  375000   0.87425174   -2.4143949   -2.4143949   -1.6868867  0.022663027   -2.4143949    0.7275082  1255725 
  376000   0.87551073   -2.4152774   -2.4152774   -1.6867215  0.027453579   -2.4152774   0.72855587  1255725 
  377000   0.87438854   -2.4143945   -2.4143945   -1.6867725  0.028023103   -2.4143945   0.72762203  1255725 
  378000   0.87397847   -2.4136251   -2.4136251   -1.6863443   0.02198157   -2.4136251    0.7272808  1255725 
  379000   0.87428892   -2.4141644   -2.4141644   -1.6866253  0.018351762   -2.4141644   0.72753913  1255725 
  380000   0.87349752   -2.4137127   -2.4137127   -1.6868321  0.032883348   -2.4137127   0.72688057  1255725 
  381000   0.87441227   -2.4142917   -2.4142917   -1.6866499  0.037619346   -2.4142917   0.72764178  1255725 
  382000   0.87353283   -2.4139828   -2.4139828   -1.6870729  0.030229212   -2.4139828   0.72690995  1255725 
  383000    0.8751775   -2.4151557   -2.4151557   -1.6868771  0.019718358   -2.4151557   0.72827856  1255725 
  384000   0.87518105   -2.4152781   -2.4152781   -1.6869965  0.020460804   -2.4152781   0.72828152  1255725 
  385000   0.87469017   -2.4149888   -2.4149888   -1.6871158  0.025913907   -2.4149888   0.72787304  1255725 
  386000   0.87278494    -2.413257    -2.413257   -1.6869694  0.026165791    -2.413257    0.7262876  1255725 
  387000    0.8736174   -2.4139727   -2.4139727   -1.6869923  0.025090797   -2.4139727   0.72698033  1255725 
  388000   0.87359272   -2.4138727   -2.4138727   -1.6869129  0.025826871   -2.4138727    0.7269598  1255725 
  389000   0.87410112   -2.4143466   -2.4143466   -1.6869637  0.025891321   -2.4143466   0.72738286  1255725 
  390000   0.87289992    -2.413271    -2.413271   -1.6868877  0.021304291    -2.413271   0.72638328  1255725 
  391000   0.87400923   -2.4145207   -2.4145207   -1.6872143  0.019718361   -2.4145207   0.72730639  1255725 
  392000   0.87347711   -2.4142346   -2.4142346   -1.6873711  0.026650581   -2.4142346   0.72686358  1255725 
  393000   0.87457915   -2.4152858   -2.4152858   -1.6875051  0.021503826   -2.4152858   0.72778065  1255725 
  394000   0.87313373   -2.4142916   -2.4142916   -1.6877138  0.029095171   -2.4142916   0.72657785  1255725 
  395000   0.87388548   -2.4154828   -2.4154828   -1.6882793  0.023048151   -2.4154828   0.72720342  1255725 
  396000    0.8740459   -2.4151699   -2.4151699   -1.6878329  0.023250848   -2.4151699    0.7273369  1255725 
  397000   0.87317042   -2.4146193   -2.4146193   -1.6880109  0.024408505   -2.4146193   0.72660838  1255725 
  398000   0.87369369   -2.4150758   -2.4150758    -1.688032  0.024971576   -2.4150758   0.72704382  1255725 
  399000   0.87403885   -2.4155053   -2.4155053   -1.6881743   0.03102347   -2.4155053   0.72733104  1255725 
  400000   0.87424854   -2.4155719   -2.4155719   -1.6880664  0.030411469   -2.4155719   0.72750553  1255725 
  401000   0.87423515   -2.4151962   -2.4151962   -1.6877018   0.02955185   -2.4151962   0.72749439  1255725 
  402000   0.87469408    -2.415305    -2.415305   -1.6874287  0.031535362    -2.415305   0.72787629  1255725 
  403000   0.87445266   -2.4154007   -2.4154007   -1.6877253  0.027874611   -2.4154007   0.72767539  1255725 
  404000   0.87395042   -2.4149087   -2.4149087   -1.6876513  0.024389071   -2.4149087   0.72725745  1255725 
  405000   0.87469395   -2.4159982   -2.4159982    -1.688122   0.02697648   -2.4159982   0.72787618  1255725 
  406000   0.87348773   -2.4151633   -2.4151633   -1.6882909  0.027139796   -2.4151633   0.72687243  1255725 
  407000   0.87401859   -2.4155757   -2.4155757   -1.6882616  0.031078155   -2.4155757   0.72731418  1255725 
  408000   0.87351411   -2.4151098   -2.4151098   -1.6882154  0.024069402   -2.4151098   0.72689438  1255725 
  409000    0.8723547   -2.4144936   -2.4144936   -1.6885641  0.023957689   -2.4144936   0.72592958  1255725 
  410000   0.87273852   -2.4150819   -2.4150819   -1.6888329  0.018409738   -2.4150819   0.72624897  1255725 
  411000    0.8730833   -2.4151819   -2.4151819    -1.688646   0.03059644   -2.4151819   0.72653588  1255725 
  412000   0.87382151   -2.4156073   -2.4156073   -1.6884571  0.027605206   -2.4156073   0.72715018  1255725 
  413000   0.87385333   -2.4157952   -2.4157952   -1.6886185   0.02161673   -2.4157952   0.72717666  1255725 
  414000    0.8726365   -2.4147194   -2.4147194   -1.6885553  0.027280087   -2.4147194   0.72616407  1255725 
  415000   0.87302246   -2.4149979   -2.4149979   -1.6885127   0.02252409   -2.4149979   0.72648525  1255725 
  416000   0.87359222   -2.4158101   -2.4158101   -1.6888507  0.025736671   -2.4158101   0.72695938  1255725 
  417000   0.87335718   -2.4155792   -2.4155792   -1.6888154  0.025349308   -2.4155792   0.72676379  1255725 
  418000   0.87370964   -2.4156192   -2.4156192   -1.6885621   0.03114296   -2.4156192   0.72705709  1255725 
  419000   0.87403593   -2.4157959   -2.4157959   -1.6884673  0.025278756   -2.4157959   0.72732861  1255725 
  420000   0.87441669   -2.4162578   -2.4162578   -1.6886123  0.020068259   -2.4162578   0.72764546  1255725 
  421000    0.8733204   -2.4154738   -2.4154738   -1.6887406  0.034129525   -2.4154738   0.72673318  1255725 
  422000   0.87477582    -2.416578    -2.416578   -1.6886337  0.029353345    -2.416578   0.72794431  1255725 
  423000    0.8737655   -2.4156194   -2.4156194   -1.6885158  0.025484491   -2.4156194   0.72710358  1255725 
  424000    0.8736481   -2.4158548   -2.4158548    -1.688849  0.026128929   -2.4158548   0.72700587  1255725 
  425000    0.8739469   -2.4162572   -2.4162572   -1.6890026  0.022546641   -2.4162572   0.72725453  1255725 
  426000   0.87372508   -2.4160385   -2.4160385   -1.6889686   0.02667079   -2.4160385   0.72706993  1255725 
  427000   0.87375136   -2.4162941   -2.4162941   -1.6892023  0.027305654   -2.4162941    0.7270918  1255725 
  428000   0.87364451   -2.4161297   -2.4161297   -1.6891268  0.017845119   -2.4161297   0.72700289  1255725 
  429000   0.87251865   -2.4157525   -2.4157525   -1.6896865  0.032298756   -2.4157525     0.726066  1255725 
  430000   0.87194703   -2.4156152   -2.4156152   -1.6900249   0.01719918   -2.4156152   0.72559033  1255725 
  431000   0.87298008   -2.4165817   -2.4165817   -1.6901317  0.028695242   -2.4165817   0.72644999  1255725 
  432000   0.87264109   -2.4168499   -2.4168499    -1.690682  0.035053674   -2.4168499   0.72616789  1255725 
  433000   0.87274667   -2.4165924   -2.4165924   -1.6903366  0.015205198   -2.4165924   0.72625575  1255725 
  434000   0.87312549   -2.4165844   -2.4165844   -1.6900134  0.026845924   -2.4165844   0.72657099  1255725 
  435000   0.87253065   -2.4161032   -2.4161032   -1.6900272  0.022468989   -2.4161032     0.726076  1255725 
  436000    0.8728367   -2.4159959   -2.4159959   -1.6896653  0.021836631   -2.4159959   0.72633067  1255725 
  437000   0.87357732   -2.4165439   -2.4165439   -1.6895969  0.024563821   -2.4165439   0.72694698  1255725 
  438000   0.87292072   -2.4162093   -2.4162093   -1.6898088  0.021834869   -2.4162093   0.72640059  1255725 
  439000   0.87313267   -2.4164559   -2.4164559   -1.6898789  0.021112082   -2.4164559   0.72657697  1255725 
  440000   0.87295854   -2.4158337   -2.4158337   -1.6894016  0.020741865   -2.4158337   0.72643206  1255725 
  441000   0.87429659   -2.4167794   -2.4167794   -1.6892339  0.013028634   -2.4167794   0.72754552  1255725 
  442000   0.87493031   -2.4171824   -2.4171824   -1.6891096  0.020403489   -2.4171824   0.72807287  1255725 
  443000   0.87355949   -2.4161759   -2.4161759   -1.6892438  0.022162772   -2.4161759   0.72693214  1255725 
  444000   0.87262662   -2.4160436   -2.4160436   -1.6898878   0.03453721   -2.4160436   0.72615585  1255725 
  445000   0.87266921   -2.4160654   -2.4160654   -1.6898741  0.023182872   -2.4160654   0.72619129  1255725 
  446000   0.87270303   -2.4161511   -2.4161511   -1.6899317  0.022761254   -2.4161511   0.72621944  1255725 
  447000   0.87216134   -2.4160099   -2.4160099   -1.6902413  0.023585105   -2.4160099   0.72576867  1255725 
  448000   0.87120514   -2.4153702   -2.4153702   -1.6903972   0.02164664   -2.4153702   0.72497297  1255725 
  449000   0.87383756   -2.4174843   -2.4174843   -1.6903207  0.023881891   -2.4174843   0.72716354  1255725 
  450000   0.87317514   -2.4168372   -2.4168372   -1.6902249  0.023566474   -2.4168372   0.72661231  1255725 
  451000   0.87315424   -2.4166781   -2.4166781   -1.6900832  0.029473039   -2.4166781   0.72659492  1255725 
  452000   0.87256049   -2.4165213   -2.4165213   -1.6904205  0.025557163   -2.4165213   0.72610083  1255725 
  453000   0.87248819      -2.4166      -2.4166   -1.6905593  0.029316254      -2.4166   0.72604066  1255725 
  454000   0.87379327   -2.4174274   -2.4174274   -1.6903007  0.033296975   -2.4174274   0.72712668  1255725 
  455000   0.87389521   -2.4178715   -2.4178715     -1.69066  0.026198815   -2.4178715   0.72721151  1255725 
  456000   0.87432424   -2.4180131   -2.4180131   -1.6904446  0.032158381   -2.4180131   0.72756853  1255725 
  457000   0.87431109   -2.4174661   -2.4174661   -1.6899086  0.030499865   -2.4174661   0.72755758  1255725 
  458000   0.87397908   -2.4173567   -2.4173567   -1.6900754  0.029770831   -2.4173567    0.7272813  1255725 
  459000   0.87346002   -2.4172492   -2.4172492   -1.6903998  0.031712623   -2.4172492   0.72684937  1255725 
  460000   0.87402902   -2.4177759   -2.4177759   -1.6904531  0.026481872   -2.4177759   0.72732286  1255725 
  461000   0.87242416   -2.4166522   -2.4166522   -1.6906648  0.031754022   -2.4166522   0.72598738  1255725 
  462000   0.87252589   -2.4169758   -2.4169758   -1.6909038  0.027596033   -2.4169758   0.72607204  1255725 
  463000    0.8734892   -2.4175451   -2.4175451   -1.6906714  0.029167792   -2.4175451   0.72687365  1255725 
  464000   0.87178506   -2.4165228   -2.4165228   -1.6910672  0.035647838   -2.4165228   0.72545555  1255725 
  465000   0.87294085   -2.4174744   -2.4174744   -1.6910571  0.018675852   -2.4174744   0.72641734  1255725 
  466000   0.87363375   -2.4181651   -2.4181651   -1.6911711  0.031057591   -2.4181651   0.72699394  1255725 
  467000   0.87344182   -2.4179632   -2.4179632    -1.691129  0.017735077   -2.4179632   0.72683422  1255725 
  468000   0.87203333   -2.4168669   -2.4168669   -1.6912048  0.027734338   -2.4168669   0.72566215  1255725 
  469000   0.87163016   -2.4169143   -2.4169143   -1.6915877  0.021209869   -2.4169143   0.72532665  1255725 
  470000   0.87092642   -2.4160862   -2.4160862   -1.6913451  0.027551685   -2.4160862   0.72474103  1255725 
  471000   0.87150008   -2.4165298   -2.4165298   -1.6913114  0.019343769   -2.4165298    0.7252184  1255725 
  472000   0.87250099   -2.4173974   -2.4173974   -1.6913461  0.022212609   -2.4173974   0.72605131  1255725 
  473000   0.87172912    -2.416733    -2.416733    -1.691324  0.011245081    -2.416733     0.725409  1255725 
  474000   0.87299624   -2.4178178   -2.4178178   -1.6913543   0.02459031   -2.4178178   0.72646343  1255725 
  475000   0.87362669   -2.4182624   -2.4182624   -1.6912744  0.033818585   -2.4182624   0.72698806  1255725 
  476000   0.87257901   -2.4175495   -2.4175495   -1.6914333  0.029862674   -2.4175495   0.72611624  1255725 
  477000   0.87350422    -2.418274    -2.418274   -1.6913879  0.036805962    -2.418274   0.72688615  1255725 
  478000   0.87336623   -2.4182379   -2.4182379   -1.6914666  0.033758776   -2.4182379   0.72677132  1255725 
  479000   0.87240377   -2.4178409   -2.4178409   -1.6918705  0.032011542   -2.4178409   0.72597041  1255725 
  480000   0.87282791   -2.4185587   -2.4185587   -1.6922354  0.026428648   -2.4185587   0.72632336  1255725 
  481000   0.87389881   -2.4192455   -2.4192455    -1.692031  0.027506605   -2.4192455    0.7272145  1255725 
  482000   0.87208411   -2.4177673   -2.4177673   -1.6920629  0.021057153   -2.4177673    0.7257044  1255725 
  483000   0.87356049   -2.4192826   -2.4192826   -1.6923497  0.028856609   -2.4192826   0.72693298  1255725 
  484000   0.87333273   -2.4188468   -2.4188468   -1.6921034  0.015785033   -2.4188468   0.72674344  1255725 
  485000   0.87130072   -2.4174643   -2.4174643   -1.6924118  0.032049178   -2.4174643   0.72505251  1255725 
  486000   0.87347422   -2.4192961   -2.4192961    -1.692435  0.017844505   -2.4192961   0.72686118  1255725 
  487000   0.87342552   -2.4192355   -2.4192355   -1.6924148  0.024049606   -2.4192355   0.72682066  1255725 
  488000   0.87210428   -2.4181605   -2.4181605   -1.6924393  0.021462823   -2.4181605   0.72572118  1255725 
  489000   0.87269435    -2.418743    -2.418743   -1.6925308  0.021924813    -2.418743   0.72621222  1255725 
  490000   0.87232318   -2.4185805   -2.4185805   -1.6926771  0.032387953   -2.4185805   0.72590334  1255725 
  491000   0.87232614   -2.4186804   -2.4186804   -1.6927746  0.038785204   -2.4186804   0.72590581  1255725 
  492000   0.87334534   -2.4195605   -2.4195605   -1.6928066  0.025722666   -2.4195605   0.72675393  1255725 
  493000    0.8724857   -2.4189208   -2.4189208   -1.6928822  0.032335588   -2.4189208   0.72603859  1255725 
  494000   0.87175637   -2.4183448   -2.4183448   -1.6929131  0.023774542   -2.4183448   0.72543167  1255725 
  495000   0.87116052   -2.4181679   -2.4181679    -1.693232  0.027652782   -2.4181679   0.72493584  1255725 
  496000   0.87062998   -2.4175258   -2.4175258   -1.6930315  0.023631594   -2.4175258   0.72449435  1255725 
  497000   0.87251228   -2.4190459   -2.4190459   -1.6929852  0.014290127   -2.4190459    0.7260607  1255725 
  498000   0.87218841   -2.4185015   -2.4185015   -1.6927103  0.023601131   -2.4185015    0.7257912  1255725 
  499000   0.87203655    -2.418443    -2.418443   -1.6927782  0.023563869    -2.418443   0.72566483  1255725 
  500000   0.87176983   -2.4178925   -2.4178925   -1.6924496  0.025976188   -2.4178925   0.72544288  1255725 
  501000   0.87190049   -2.4179619   -2.4179619   -1.6924103  0.024213386   -2.4179619   0.72555161  1255725 
  502000   0.87199934   -2.4176743   -2.4176743   -1.6920405  0.029859816   -2.4176743   0.72563386  1255725 
  503000   0.87277478   -2.4181506   -2.4181506   -1.6918715  0.026688429   -2.4181506   0.72627914  1255725 
  504000   0.87373519   -2.4187247   -2.4187247   -1.6916464  0.026744594   -2.4187247   0.72707835  1255725 
  505000   0.87267868   -2.4180514   -2.4180514   -1.6918522  0.031596281   -2.4180514   0.72619918  1255725 
  506000   0.87258126   -2.4180725   -2.4180725   -1.6919544  0.035099799   -2.4180725   0.72611811  1255725 
  507000   0.87254631   -2.4187578   -2.4187578   -1.6926688  0.025440109   -2.4187578   0.72608903  1255725 
  508000   0.87146769   -2.4176716   -2.4176716   -1.6924801   0.02910978   -2.4176716   0.72519145  1255725 
  509000   0.87250389   -2.4187182   -2.4187182   -1.6926645  0.026453721   -2.4187182   0.72605373  1255725 
  510000   0.87268527   -2.4191902   -2.4191902   -1.6929856  0.025520637   -2.4191902   0.72620466  1255725 
  511000   0.87361241      -2.4195      -2.4195   -1.6925238  0.023630446      -2.4195   0.72697618  1255725 
  512000    0.8715913   -2.4179252   -2.4179252   -1.6926309  0.031932457   -2.4179252   0.72529431  1255725 
  513000   0.87240595   -2.4185709   -2.4185709   -1.6925986  0.029352719   -2.4185709   0.72597222  1255725 
  514000   0.87233611   -2.4185325   -2.4185325   -1.6926184  0.016476342   -2.4185325   0.72591411  1255725 
  515000   0.87260594   -2.4187453   -2.4187453   -1.6926067  0.024225274   -2.4187453   0.72613864  1255725 
  516000   0.87195315   -2.4180404   -2.4180404    -1.692445  0.024163578   -2.4180404   0.72559542  1255725 
  517000   0.87224322   -2.4179811   -2.4179811   -1.6921443   0.01369935   -2.4179811   0.72583681  1255725 
  518000   0.87213608   -2.4181643   -2.4181643   -1.6924167  0.019382888   -2.4181643   0.72574765  1255725 
  519000   0.87159033    -2.418197    -2.418197   -1.6929035  0.024527654    -2.418197   0.72529351  1255725 
  520000   0.87214983   -2.4184739   -2.4184739   -1.6927148  0.036074578   -2.4184739   0.72575909  1255725 
  521000   0.87317016   -2.4191082   -2.4191082      -1.6925  0.024381633   -2.4191082   0.72660816  1255725 
  522000   0.87287107   -2.4184139   -2.4184139   -1.6920546  0.027718356   -2.4184139   0.72635928  1255725 
  523000   0.87212297   -2.4183168   -2.4183168   -1.6925801  0.029986303   -2.4183168   0.72573674  1255725 
  524000   0.87166914   -2.4178836   -2.4178836   -1.6925246  0.024683635   -2.4178836   0.72535909  1255725 
  525000   0.87093895   -2.4176226   -2.4176226   -1.6928712  0.030344864   -2.4176226   0.72475146  1255725 
  526000   0.87141465   -2.4180579   -2.4180579   -1.6929106  0.022882454   -2.4180579   0.72514731  1255725 
  527000   0.87149012   -2.4187064   -2.4187064   -1.6934963   0.02549787   -2.4187064   0.72521012  1255725 
  528000   0.87088242   -2.4181811   -2.4181811   -1.6934767  0.029853952   -2.4181811   0.72470442  1255725 
  529000   0.87048065   -2.4176225   -2.4176225   -1.6932524   0.02158952   -2.4176225   0.72437008  1255725 
  530000   0.87093159   -2.4182716   -2.4182716   -1.6935262  0.025617706   -2.4182716   0.72474534  1255725 
  531000   0.87182397   -2.4189602   -2.4189602   -1.6934722  0.021679541   -2.4189602   0.72548793  1255725 
  532000   0.87129046    -2.418535    -2.418535    -1.693491  0.028467533    -2.418535   0.72504397  1255725 
  533000   0.87180204   -2.4190007   -2.4190007    -1.693531  0.027744183   -2.4190007   0.72546968  1255725 
  534000   0.87119024   -2.4184715   -2.4184715   -1.6935109  0.024769297   -2.4184715   0.72496057  1255725 
  535000    0.8718988   -2.4194759   -2.4194759   -1.6939257  0.027584647   -2.4194759    0.7255502  1255725 
  536000   0.87245682   -2.4196912   -2.4196912   -1.6936766  0.021277804   -2.4196912   0.72601455  1255725 
  537000    0.8715734   -2.4190866   -2.4190866   -1.6938072  0.032814513   -2.4190866   0.72527942  1255725 
  538000   0.87128198   -2.4191667   -2.4191667   -1.6941298  0.038805706   -2.4191667   0.72503692  1255725 
  539000   0.87127078   -2.4191315   -2.4191315   -1.6941039  0.030433413   -2.4191315   0.72502759  1255725 
  540000   0.87125713    -2.418831    -2.418831   -1.6938148  0.016643724    -2.418831   0.72501624  1255725 
  541000   0.87214087   -2.4196648   -2.4196648   -1.6939132  0.032203632   -2.4196648   0.72575163  1255725 
  542000   0.87249703   -2.4200346   -2.4200346   -1.6939866    0.0327773   -2.4200346   0.72604802  1255725 
  543000   0.87196435   -2.4199361   -2.4199361   -1.6943313  0.029420157   -2.4199361   0.72560475  1255725 
  544000   0.87209523   -2.4198383   -2.4198383   -1.6941246  0.037140004   -2.4198383   0.72571366  1255725 
  545000   0.87008615   -2.4184682   -2.4184682   -1.6944264  0.029669668   -2.4184682    0.7240418  1255725 
  546000   0.87063413   -2.4188313   -2.4188313   -1.6943335   0.02717675   -2.4188313   0.72449781  1255725 
  547000   0.87138953   -2.4199082   -2.4199082   -1.6947817  0.021653246   -2.4199082   0.72512641  1255725 
  548000   0.86996853   -2.4187654   -2.4187654   -1.6948215  0.024765473   -2.4187654   0.72394393  1255725 
  549000   0.87097275   -2.4190132   -2.4190132   -1.6942336  0.032057296   -2.4190132   0.72477959  1255725 
  550000   0.87164611   -2.4195011   -2.4195011   -1.6941612  0.035701483   -2.4195011   0.72533993  1255725 
  551000   0.87236547   -2.4197317   -2.4197317   -1.6937932  0.023224419   -2.4197317   0.72593853  1255725 
  552000   0.87235583   -2.4200301   -2.4200301   -1.6940996  0.027272074   -2.4200301   0.72593051  1255725 
  553000    0.8723641   -2.4200236   -2.4200236   -1.6940862  0.029024249   -2.4200236    0.7259374  1255725 
  554000   0.87033938   -2.4187023   -2.4187023   -1.6944498  0.030883121   -2.4187023   0.72425253  1255725 
  555000   0.87221649   -2.4201677   -2.4201677   -1.6943531   0.02541324   -2.4201677   0.72581456  1255725 
  556000   0.87202177   -2.4201905   -2.4201905   -1.6945379  0.023333962   -2.4201905   0.72565253  1255725 
  557000   0.87106155   -2.4190877   -2.4190877   -1.6942342  0.026991845   -2.4190877   0.72485348  1255725 
  558000   0.87223357   -2.4198546   -2.4198546   -1.6940258  0.022378899   -2.4198546   0.72582877  1255725 
  559000   0.87161673   -2.4192679   -2.4192679   -1.6939524  0.024531091   -2.4192679   0.72531547  1255725 
  560000   0.87176059   -2.4193892   -2.4193892    -1.693954  0.027011172   -2.4193892   0.72543519  1255725 
  561000   0.87043931   -2.4185182   -2.4185182   -1.6941825  0.023879483   -2.4185182   0.72433568  1255725 
  562000    0.8712065   -2.4192961   -2.4192961   -1.6943221  0.025192782   -2.4192961    0.7249741  1255725 
  563000   0.87007345   -2.4185407   -2.4185407   -1.6945095  0.019298992   -2.4185407   0.72403124  1255725 
  564000    0.8703486   -2.4187922   -2.4187922    -1.694532  0.019888962   -2.4187922    0.7242602  1255725 
  565000   0.87029738   -2.4188261   -2.4188261   -1.6946085  0.020601587   -2.4188261   0.72421758  1255725 
  566000   0.87053227   -2.4189343   -2.4189343   -1.6945213  0.021914007   -2.4189343   0.72441304  1255725 
  567000   0.87154729   -2.4194365   -2.4194365   -1.6941788  0.026773237   -2.4194365   0.72525769  1255725 
  568000   0.87081351   -2.4191586   -2.4191586   -1.6945116  0.024946781   -2.4191586   0.72464708  1255725 
  569000   0.87134565   -2.4198379   -2.4198379    -1.694748  0.030635472   -2.4198379   0.72508989  1255725 
  570000   0.87097089   -2.4195587   -2.4195587   -1.6947807  0.023014302   -2.4195587   0.72477804  1255725 
  571000   0.87162253   -2.4197743   -2.4197743    -1.694454  0.036981522   -2.4197743    0.7253203  1255725 
  572000   0.87120824   -2.4193985   -2.4193985   -1.6944229  0.033620917   -2.4193985   0.72497555  1255725 
  573000   0.87081847   -2.4194821   -2.4194821   -1.6948309  0.028478824   -2.4194821    0.7246512  1255725 
  574000    0.8712301   -2.4201074   -2.4201074   -1.6951136  0.024129376   -2.4201074   0.72499374  1255725 
  575000   0.87148879    -2.419845    -2.419845    -1.694636   0.02293794    -2.419845   0.72520901  1255725 
  576000   0.87148863   -2.4200361   -2.4200361   -1.6948273   0.02213378   -2.4200361   0.72520888  1255725 
  577000   0.87199203   -2.4205358   -2.4205358    -1.694908  0.034998877   -2.4205358   0.72562778  1255725 
  578000   0.87072551   -2.4192829   -2.4192829   -1.6947091  0.023372491   -2.4192829   0.72457385  1255725 
  579000   0.87052734   -2.4192279   -2.4192279    -1.694819  0.027895239   -2.4192279   0.72440894  1255725 
  580000   0.87086766   -2.4194431   -2.4194431    -1.694751  0.032960781   -2.4194431   0.72469213  1255725 
  581000   0.87094721   -2.4195481   -2.4195481   -1.6947898  0.019382997   -2.4195481   0.72475833  1255725 
  582000   0.87128973   -2.4199912   -2.4199912   -1.6949478   0.02604712   -2.4199912   0.72504336  1255725 
  583000   0.87129222   -2.4198264   -2.4198264    -1.694781  0.025244345   -2.4198264   0.72504544  1255725 
  584000   0.87097511   -2.4197023   -2.4197023   -1.6949207  0.027290408   -2.4197023   0.72478155  1255725 
  585000   0.87054799   -2.4193183   -2.4193183   -1.6948921  0.026458788   -2.4193183   0.72442612  1255725 
  586000   0.86943733   -2.4184914   -2.4184914   -1.6949895  0.034700548   -2.4184914   0.72350189  1255725 
  587000   0.87207556   -2.4207219   -2.4207219   -1.6950247   0.02348174   -2.4207219   0.72569729  1255725 
  588000    0.8701913   -2.4190389   -2.4190389   -1.6949096  0.019101238   -2.4190389   0.72412931  1255725 
  589000   0.86913413   -2.4181318   -2.4181318   -1.6948823  0.038217465   -2.4181318   0.72324958  1255725 
  590000   0.87056694   -2.4195694   -2.4195694   -1.6951275  0.028555179   -2.4195694   0.72444189  1255725 
  591000   0.87083856   -2.4198531   -2.4198531   -1.6951852  0.021835729   -2.4198531   0.72466792  1255725 
  592000   0.87057367    -2.419291    -2.419291   -1.6948435  0.026710595    -2.419291   0.72444749  1255725 
  593000   0.87040316   -2.4190924   -2.4190924   -1.6947868  0.020152744   -2.4190924    0.7243056  1255725 
  594000   0.87027127   -2.4192041   -2.4192041   -1.6950082  0.025333939   -2.4192041   0.72419585  1255725 
  595000   0.87077728   -2.4197419   -2.4197419    -1.695125  0.022351883   -2.4197419   0.72461693  1255725 
  596000   0.87040799   -2.4198167   -2.4198167   -1.6955071  0.037564883   -2.4198167   0.72430962  1255725 
  597000   0.87187951   -2.4210465   -2.4210465   -1.6955123  0.023692448   -2.4210465   0.72553415  1255725 
  598000   0.87111392   -2.4201081   -2.4201081    -1.695211  0.028145462   -2.4201081   0.72489706  1255725 
  599000    0.8708609   -2.4200246   -2.4200246   -1.6953381  0.018760286   -2.4200246   0.72468651  1255725 
  600000    0.8722654   -2.4210225   -2.4210225   -1.6951672  0.022923547   -2.4210225   0.72585527  1255725 
  601000   0.87175713   -2.4204823   -2.4204823     -1.69505  0.020333344   -2.4204823   0.72543231  1255725 
  602000   0.87073209   -2.4196024   -2.4196024   -1.6950231  0.038143468   -2.4196024   0.72457932  1255725 
  603000   0.87145168   -2.4202434   -2.4202434   -1.6950653  0.034815061   -2.4202434   0.72517813  1255725 
  604000   0.87181664   -2.4204733   -2.4204733   -1.6949914  0.037285204   -2.4204733   0.72548183  1255725 
  605000    0.8707406   -2.4196325   -2.4196325   -1.6950461  0.030605041   -2.4196325    0.7245864  1255725 
  606000   0.87081112   -2.4196632   -2.4196632   -1.6950181   0.02845665   -2.4196632   0.72464508  1255725 
  607000    0.8722461   -2.4209728   -2.4209728   -1.6951336  0.020559258   -2.4209728    0.7258392  1255725 
  608000   0.87067675   -2.4191831   -2.4191831   -1.6946499  0.025983168   -2.4191831   0.72453327  1255725 
  609000   0.86955484   -2.4186102   -2.4186102   -1.6950105  0.014976715   -2.4186102   0.72359968  1255725 
  610000   0.86923797   -2.4187182   -2.4187182   -1.6953822  0.028300588   -2.4187182   0.72333599  1255725 
  611000    0.8701481    -2.419692    -2.419692   -1.6955986  0.024506979    -2.419692   0.72409336  1255725 
  612000   0.86979314   -2.4189125   -2.4189125   -1.6951145  0.023017241   -2.4189125   0.72379797  1255725 
  613000   0.87062398   -2.4194347   -2.4194347   -1.6949454  0.016203099   -2.4194347   0.72448936  1255725 
  614000   0.86924292   -2.4183709   -2.4183709   -1.6950308  0.020226282   -2.4183709   0.72334011  1255725 
  615000   0.86946171   -2.4190321   -2.4190321     -1.69551  0.015361653   -2.4190321   0.72352218  1255725 
  616000   0.87020207   -2.4194302   -2.4194302    -1.695292   0.02733514   -2.4194302   0.72413827  1255725 
  617000   0.87038945   -2.4191322   -2.4191322    -1.694838  0.023579813   -2.4191322   0.72429419  1255725 
  618000   0.86955324   -2.4184894   -2.4184894    -1.694891  0.036303559   -2.4184894   0.72359834  1255725 
  619000   0.87030952   -2.4191738   -2.4191738   -1.6949462  0.023340301   -2.4191738   0.72422768  1255725 
  620000   0.86961651   -2.4188152   -2.4188152   -1.6951642  0.020704334   -2.4188152   0.72365099  1255725 
  621000   0.86999077   -2.4190849   -2.4190849   -1.6951224  0.030182601   -2.4190849   0.72396243  1255725 
  622000    0.8705699   -2.4197289   -2.4197289   -1.6952845   0.02579719   -2.4197289   0.72444435  1255725 
  623000   0.87050295   -2.4194588   -2.4194588   -1.6950702  0.031281583   -2.4194588   0.72438864  1255725 
  624000   0.86984645     -2.41876     -2.41876   -1.6949176  0.034873724     -2.41876   0.72384233  1255725 
  625000   0.87140125   -2.4201675   -2.4201675   -1.6950314  0.021005161   -2.4201675   0.72513616  1255725 
  626000   0.87139921    -2.420348    -2.420348   -1.6952136  0.032647958    -2.420348   0.72513447  1255725 
  627000   0.87039897   -2.4195258   -2.4195258   -1.6952237  0.030168042   -2.4195258   0.72430212  1255725 
  628000   0.87106733   -2.4199225   -2.4199225   -1.6950642  0.035767815   -2.4199225   0.72485829  1255725 
  629000   0.87136171   -2.4202668   -2.4202668   -1.6951636  0.027264677   -2.4202668   0.72510326  1255725 
  630000   0.86970313   -2.4192801   -2.4192801   -1.6955571  0.028100104   -2.4192801   0.72372307  1255725 
  631000   0.87065874   -2.4201755   -2.4201755   -1.6956572  0.030204016   -2.4201755   0.72451828  1255725 
  632000   0.87008525   -2.4198452   -2.4198452   -1.6958042  0.026062372   -2.4198452   0.72404105  1255725 
  633000   0.87012194   -2.4196562   -2.4196562   -1.6955846  0.028378415   -2.4196562   0.72407158  1255725 
  634000   0.86950433   -2.4193944   -2.4193944   -1.6958367  0.030187148   -2.4193944   0.72355765  1255725 
  635000   0.87022481   -2.4199823   -2.4199823   -1.6958251  0.033180577   -2.4199823   0.72415719  1255725 
  636000   0.87081613   -2.4203542   -2.4203542   -1.6957049  0.027538949   -2.4203542   0.72464925  1255725 
  637000   0.87033648   -2.4197491   -2.4197491    -1.695499  0.026339375   -2.4197491   0.72425012  1255725 
  638000   0.87131382   -2.4202717   -2.4202717   -1.6952083   0.02888502   -2.4202717   0.72506341  1255725 
  639000   0.87112453   -2.4201454   -2.4201454   -1.6952395  0.028480394   -2.4201454   0.72490589  1255725 
  640000   0.87099753   -2.4202456   -2.4202456   -1.6954454  0.029440115   -2.4202456    0.7248002  1255725 
  641000   0.86937362   -2.4192297   -2.4192297   -1.6957808  0.039056526   -2.4192297   0.72344887  1255725 
  642000    0.8697742   -2.4194848   -2.4194848   -1.6957026  0.029391073   -2.4194848   0.72378222  1255725 
  643000   0.87048163   -2.4199759   -2.4199759    -1.695605  0.024507029   -2.4199759    0.7243709  1255725 
  644000   0.87067574   -2.4202051   -2.4202051   -1.6956726  0.028666871   -2.4202051   0.72453243  1255725 
  645000   0.87072522   -2.4200155   -2.4200155   -1.6954419  0.019885467   -2.4200155   0.72457361  1255725 
  646000   0.87085434   -2.4200203   -2.4200203   -1.6953393  0.028065683   -2.4200203   0.72468105  1255725 
  647000   0.87045987   -2.4194005   -2.4194005   -1.6950477   0.03032542   -2.4194005    0.7243528  1255725 
  648000   0.87103064   -2.4202364   -2.4202364   -1.6954087  0.024092661   -2.4202364   0.72482776  1255725 
  649000   0.87172221   -2.4206445   -2.4206445   -1.6952413  0.024852592   -2.4206445   0.72540325  1255725 
  650000   0.87064035   -2.4196769   -2.4196769   -1.6951739  0.029622619   -2.4196769   0.72450298  1255725 
  651000   0.87109205    -2.419834    -2.419834   -1.6949551  0.027314355    -2.419834   0.72487886  1255725 
  652000   0.87116295   -2.4198061   -2.4198061   -1.6948682  0.029394768   -2.4198061   0.72493786  1255725 
  653000   0.87021773   -2.4193405   -2.4193405   -1.6951892  0.022378594   -2.4193405    0.7241513  1255725 
  654000   0.87064507   -2.4197928   -2.4197928   -1.6952859    0.0231665   -2.4197928    0.7245069  1255725 
  655000    0.8713311   -2.4203111   -2.4203111   -1.6952333  0.021666024   -2.4203111   0.72507779  1255725 
  656000   0.87026552   -2.4197893   -2.4197893   -1.6955983  0.024070433   -2.4197893   0.72419106  1255725 
[...]
 2832000    0.9182751    -2.307629    -2.307629   -1.5434868  0.032543507    -2.307629   0.76414222  1255725 
 2833000    0.9178511   -2.3069866   -2.3069866   -1.5431972  0.039214299   -2.3069866   0.76378939  1255725 
 2834000   0.91976533   -2.3082033   -2.3082033    -1.542821  0.038995094   -2.3082033   0.76538231  1255725 
 2835000   0.91894164   -2.3074497   -2.3074497   -1.5427528   0.03055488   -2.3074497   0.76469688  1255725 
 2836000   0.92003271   -2.3078601   -2.3078601   -1.5422553  0.039750302   -2.3078601   0.76560481  1255725 
 2837000   0.91894658   -2.3068554   -2.3068554   -1.5421544  0.034552418   -2.3068554   0.76470099  1255725 
 2838000   0.92017527   -2.3074769   -2.3074769   -1.5417535  0.030945892   -2.3074769   0.76572344  1255725 
 2839000   0.91939621   -2.3063503   -2.3063503   -1.5412752  0.040233447   -2.3063503   0.76507515  1255725 
 2840000   0.91989118      -2.3066      -2.3066    -1.541113  0.036955073      -2.3066   0.76548704  1255725 
 2841000   0.91998392   -2.3069863   -2.3069863   -1.5414221  0.029344096   -2.3069863   0.76556421  1255725 
 2842000   0.91966287   -2.3064662   -2.3064662   -1.5411691  0.036873818   -2.3064662   0.76529705  1255725 
 2843000    0.9195078   -2.3067588   -2.3067588   -1.5415908   0.03273558   -2.3067588   0.76516801  1255725 
 2844000   0.92106889   -2.3078601   -2.3078601   -1.5413931  0.030383322   -2.3078601   0.76646706  1255725 
 2845000   0.91989321   -2.3069955   -2.3069955   -1.5415068  0.032913826   -2.3069955   0.76548873  1255725 
 2846000   0.91941212   -2.3064065   -2.3064065   -1.5413181  0.042643355   -2.3064065   0.76508839  1255725 
 2847000   0.91998785    -2.306583    -2.306583   -1.5410155  0.032252977    -2.306583   0.76556748  1255725 
 2848000   0.91807978   -2.3049543   -2.3049543   -1.5409747  0.021932917   -2.3049543   0.76397968  1255725 
 2849000   0.91894504    -2.305975    -2.305975   -1.5412753  0.031101814    -2.305975   0.76469971  1255725 
 2850000   0.91865178   -2.3058936   -2.3058936   -1.5414379  0.032723481   -2.3058936   0.76445567  1255725 
 2851000   0.91896935   -2.3059833   -2.3059833   -1.5412634  0.036063997   -2.3059833   0.76471994  1255725 
 2852000   0.91896815   -2.3059518   -2.3059518   -1.5412329  0.028192288   -2.3059518   0.76471894  1255725 
 2853000   0.91969515   -2.3064526   -2.3064526   -1.5411287  0.033562196   -2.3064526   0.76532391  1255725 
 2854000    0.9199164   -2.3066982   -2.3066982   -1.5411902   0.02678938   -2.3066982   0.76550802  1255725 
 2855000    0.9182981   -2.3049149   -2.3049149   -1.5407535  0.037237566   -2.3049149   0.76416135  1255725 
 2856000   0.91873586   -2.3051851   -2.3051851   -1.5406594  0.022862104   -2.3051851   0.76452564  1255725 
 2857000    0.9192385   -2.3055015   -2.3055015   -1.5405576   0.02662607   -2.3055015   0.76494391  1255725 
 2858000    0.9198656   -2.3060291   -2.3060291   -1.5405634  0.028307878   -2.3060291   0.76546575  1255725 
 2859000   0.92099352   -2.3070405   -2.3070405   -1.5406361  0.035132205   -2.3070405   0.76640434  1255725 
 2860000   0.91979711   -2.3056947   -2.3056947   -1.5402859  0.026674551   -2.3056947   0.76540876  1255725 
 2861000   0.91988552   -2.3057475   -2.3057475   -1.5402652  0.029468931   -2.3057475   0.76548232  1255725 
 2862000   0.92121668   -2.3065969   -2.3065969   -1.5400068  0.033935094   -2.3065969   0.76659005  1255725 
 2863000   0.92005626   -2.3055828   -2.3055828   -1.5399583  0.036728639   -2.3055828   0.76562441  1255725 
 2864000   0.92036377   -2.3055735   -2.3055735   -1.5396932  0.035472064   -2.3055735    0.7658803  1255725 
 2865000   0.92220751   -2.3073323   -2.3073323   -1.5399177  0.033443166   -2.3073323   0.76741457  1255725 
 2866000   0.92162173   -2.3069191   -2.3069191    -1.539992  0.039568336   -2.3069191   0.76692711  1255725 
 2867000   0.92158859   -2.3062483   -2.3062483   -1.5393487  0.029502704   -2.3062483   0.76689954  1255725 
 2868000   0.91958331   -2.3049736   -2.3049736   -1.5397427  0.030736215   -2.3049736   0.76523085  1255725 
 2869000   0.92169041    -2.306176    -2.306176   -1.5391917  0.029606858    -2.306176   0.76698426  1255725 
 2870000    0.9207153   -2.3056995   -2.3056995   -1.5395266  0.032593708   -2.3056995   0.76617282  1255725 
 2871000   0.91990315   -2.3053556   -2.3053556   -1.5398586  0.028802535   -2.3053556   0.76549699  1255725 
 2872000    0.9192051   -2.3049671   -2.3049671    -1.540051  0.032802789   -2.3049671   0.76491611  1255725 
 2873000   0.92086992   -2.3061386   -2.3061386   -1.5398371  0.036575578   -2.3061386   0.76630149  1255725 
 2874000   0.92127893   -2.3062159   -2.3062159   -1.5395741  0.038426159   -2.3062159   0.76664185  1255725 
 2875000   0.92075833   -2.3060869   -2.3060869   -1.5398783  0.028156285   -2.3060869   0.76620864  1255725 
 2876000    0.9199345   -2.3052239   -2.3052239   -1.5397008  0.036138527   -2.3052239   0.76552309  1255725 
 2877000   0.92087274   -2.3058053   -2.3058053   -1.5395015  0.035984442   -2.3058053   0.76630384  1255725 
 2878000   0.92055162   -2.3050573   -2.3050573   -1.5390207  0.026460947   -2.3050573   0.76603662  1255725 
 2879000     0.920327   -2.3046458   -2.3046458   -1.5387961  0.038730667   -2.3046458    0.7658497  1255725 
 2880000   0.92024153   -2.3046706   -2.3046706    -1.538892   0.03343415   -2.3046706   0.76577858  1255725 
 2881000   0.92041359   -2.3045023   -2.3045023   -1.5385805  0.039649883   -2.3045023   0.76592176  1255725 
 2882000    0.9207721   -2.3044975   -2.3044975   -1.5382775  0.039741106   -2.3044975   0.76622009  1255725 
 2883000   0.92124784   -2.3046528   -2.3046528   -1.5380368  0.025036481   -2.3046528   0.76661598  1255725 
 2884000   0.92134499   -2.3045692   -2.3045692   -1.5378724  0.026666175   -2.3045692   0.76669682  1255725 
 2885000   0.92166229   -2.3049152   -2.3049152   -1.5379543  0.039512062   -2.3049152   0.76696086  1255725 
 2886000   0.92089186   -2.3040128   -2.3040128    -1.537693  0.042118078   -2.3040128   0.76631975  1255725 
 2887000   0.92002124   -2.3036523   -2.3036523    -1.538057  0.030126747   -2.3036523   0.76559526  1255725 
 2888000    0.9208457   -2.3044703   -2.3044703    -1.538189  0.034504103   -2.3044703   0.76628134  1255725 
 2889000     0.921559   -2.3045872   -2.3045872   -1.5377123  0.035147243   -2.3045872   0.76687491  1255725 
 2890000    0.9208962   -2.3041491   -2.3041491   -1.5378257  0.032143734   -2.3041491   0.76632337  1255725 
 2891000   0.92132075   -2.3042454   -2.3042454   -1.5375687  0.033438724   -2.3042454   0.76667665  1255725 
 2892000   0.92203141   -2.3045344   -2.3045344   -1.5372664  0.032314404   -2.3045344   0.76726803  1255725 
 2893000   0.92121331    -2.303605    -2.303605   -1.5370178  0.033606297    -2.303605   0.76658725  1255725 
 2894000   0.92125079     -2.30327     -2.30327   -1.5366516  0.035161604     -2.30327   0.76661844  1255725 
 2895000   0.92217456   -2.3037811   -2.3037811   -1.5363939    0.0295943   -2.3037811   0.76738715  1255725 
 2896000   0.92187193   -2.3037629   -2.3037629   -1.5366275  0.035392043   -2.3037629   0.76713531  1255725 
 2897000   0.92075489   -2.3028084   -2.3028084   -1.5366027  0.035467718   -2.3028084   0.76620577  1255725 
 2898000   0.92190623   -2.3034685   -2.3034685   -1.5363046   0.02553384   -2.3034685   0.76716386  1255725 
 2899000   0.92149398   -2.3026606   -2.3026606   -1.5358398  0.031065846   -2.3026606    0.7668208  1255725 
 2900000   0.92163153   -2.3026967   -2.3026967   -1.5357614  0.031789965   -2.3026967   0.76693527  1255725 
 2901000   0.92200208   -2.3030204   -2.3030204   -1.5357768   0.03088569   -2.3030204   0.76724362  1255725 
 2902000   0.92109935   -2.3020978   -2.3020978   -1.5356054  0.030001304   -2.3020978   0.76649241  1255725 
 2903000   0.92118652   -2.3023709   -2.3023709    -1.535806  0.037821502   -2.3023709   0.76656495  1255725 
 2904000    0.9222884   -2.3028452   -2.3028452   -1.5353634  0.026015526   -2.3028452   0.76748188  1255725 
 2905000    0.9223746   -2.3028354   -2.3028354   -1.5352817  0.025594325   -2.3028354   0.76755361  1255725 
 2906000   0.92226171   -2.3022983   -2.3022983   -1.5348386   0.03558903   -2.3022983   0.76745967  1255725 
 2907000   0.92208269   -2.3024209   -2.3024209   -1.5351102  0.034745259   -2.3024209    0.7673107  1255725 
 2908000   0.92214162   -2.3024818   -2.3024818   -1.5351221  0.027288377   -2.3024818   0.76735974  1255725 
 2909000   0.92271864   -2.3024743   -2.3024743   -1.5346343  0.028494464   -2.3024743   0.76783991  1255725 
 2910000   0.92204896    -2.301964    -2.301964   -1.5346814  0.030614571    -2.301964   0.76728263  1255725 
 2911000   0.92193337   -2.3016379   -2.3016379   -1.5344514  0.028799576   -2.3016379   0.76718645  1255725 
 2912000   0.92239268   -2.3023111   -2.3023111   -1.5347424  0.031685501   -2.3023111   0.76756865  1255725 
 2913000   0.92119291   -2.3009849   -2.3009849   -1.5344146  0.026089227   -2.3009849   0.76657027  1255725 
 2914000   0.92177534   -2.3011217   -2.3011217   -1.5340668  0.026686856   -2.3011217   0.76705494  1255725 
 2915000    0.9223997   -2.3017606   -2.3017606   -1.5341861  0.028665032   -2.3017606    0.7675745  1255725 
 2916000   0.92241179   -2.3019298   -2.3019298   -1.5343452  0.029180836   -2.3019298   0.76758456  1255725 
 2917000   0.92269598   -2.3016963   -2.3016963   -1.5338752  0.034367806   -2.3016963   0.76782105  1255725 
 2918000   0.92345676   -2.3021101   -2.3021101   -1.5336559  0.035232449   -2.3021101   0.76845413  1255725 
 2919000   0.92190771   -2.3012726   -2.3012726   -1.5341075  0.037661937   -2.3012726   0.76716509  1255725 
 2920000   0.92305079   -2.3018991   -2.3018991   -1.5337828   0.03774062   -2.3018991   0.76811631  1255725 
 2921000   0.92340866   -2.3019619   -2.3019619   -1.5335478  0.029839937   -2.3019619    0.7684141  1255725 
 2922000   0.92442053   -2.3025791   -2.3025791    -1.533323  0.028837061   -2.3025791   0.76925614  1255725 
 2923000   0.92236776   -2.3009713   -2.3009713   -1.5334234  0.036644414   -2.3009713   0.76754792  1255725 
 2924000   0.92268014   -2.3008777   -2.3008777   -1.5330698  0.032142073   -2.3008777   0.76780787  1255725 
 2925000   0.92314555   -2.3010004   -2.3010004   -1.5328052  0.028195995   -2.3010004   0.76819516  1255725 
 2926000    0.9215388   -2.2994945   -2.2994945   -1.5326364  0.031101156   -2.2994945    0.7668581  1255725 
 2927000   0.92316882   -2.3009233   -2.3009233   -1.5327088  0.030119324   -2.3009233   0.76821452  1255725 
 2928000    0.9235676   -2.3010015   -2.3010015   -1.5324551  0.028492441   -2.3010015   0.76854636  1255725 
 2929000   0.92306916    -2.300374    -2.300374   -1.5322424  0.033887697    -2.300374   0.76813159  1255725 
 2930000   0.92346707   -2.3006395   -2.3006395   -1.5321768  0.027855382   -2.3006395   0.76846271  1255725 
 2931000   0.92268577   -2.2999047   -2.2999047   -1.5320921  0.042586236   -2.2999047   0.76781256  1255725 
 2932000   0.92388085   -2.3007069   -2.3007069   -1.5318999  0.025507243   -2.3007069   0.76880704  1255725 
 2933000   0.92411448   -2.3007065   -2.3007065   -1.5317051   0.03738518   -2.3007065   0.76900145  1255725 
 2934000   0.92327194   -2.3002884   -2.3002884    -1.531988  0.034042384   -2.3002884   0.76830034  1255725 
 2935000   0.92361177   -2.2999017   -2.2999017   -1.5313186  0.026452069   -2.2999017   0.76858312  1255725 
 2936000   0.92337352   -2.2996192   -2.2996192   -1.5312344  0.035471547   -2.2996192   0.76838486  1255725 
 2937000   0.92317827   -2.2993493   -2.2993493   -1.5311269  0.022427015   -2.2993493   0.76822238  1255725 
 2938000    0.9227789   -2.2989223   -2.2989223   -1.5310323  0.035035016   -2.2989223   0.76789005  1255725 
 2939000   0.92296902   -2.2991383   -2.2991383     -1.53109  0.035037165   -2.2991383   0.76804826  1255725 
 2940000   0.92217229    -2.298389    -2.298389   -1.5310037  0.030598832    -2.298389   0.76738526  1255725 
 2941000   0.92318722   -2.2987638   -2.2987638    -1.530534  0.030113007   -2.2987638   0.76822983  1255725 
 2942000   0.92459074    -2.299735    -2.299735   -1.5303372  0.028224224    -2.299735   0.76939777  1255725 
 2943000   0.92341512   -2.2988034   -2.2988034   -1.5303839  0.020104095   -2.2988034   0.76841948  1255725 
 2944000   0.92320943   -2.2981914   -2.2981914   -1.5299431  0.031415546   -2.2981914   0.76824831  1255725 
 2945000   0.92342198   -2.2984147   -2.2984147   -1.5299895  0.033131796   -2.2984147   0.76842519  1255725 
 2946000   0.92382047   -2.2988433   -2.2988433   -1.5300865   0.03089034   -2.2988433   0.76875679  1255725 
 2947000   0.92329048   -2.2980307   -2.2980307   -1.5297149   0.03756697   -2.2980307   0.76831576  1255725 
 2948000    0.9244183   -2.2987997   -2.2987997   -1.5295454  0.027606028   -2.2987997   0.76925428  1255725 
 2949000   0.92471717   -2.2988292   -2.2988292   -1.5293262  0.030134949   -2.2988292   0.76950298  1255725 
 2950000   0.92417347   -2.2982181   -2.2982181   -1.5291676  0.030017059   -2.2982181   0.76905054  1255725 
 2951000   0.92457514   -2.2981078   -2.2981078    -1.528723  0.031811973   -2.2981078   0.76938479  1255725 
 2952000   0.92272851   -2.2965778   -2.2965778   -1.5287297   0.03265027   -2.2965778   0.76784812  1255725 
 2953000   0.92370465   -2.2970454   -2.2970454    -1.528385  0.027004005   -2.2970454   0.76866041  1255725 
 2954000   0.92315247   -2.2967683   -2.2967683   -1.5285674   0.03114027   -2.2967683   0.76820092  1255725 
 2955000   0.92325179   -2.2972053   -2.2972053   -1.5289217  0.027981678   -2.2972053   0.76828357  1255725 
 2956000   0.92448421   -2.2980673   -2.2980673   -1.5287582  0.024460578   -2.2980673   0.76930913  1255725 
 2957000   0.92439006   -2.2973723   -2.2973723   -1.5281415  0.035447137   -2.2973723   0.76923078  1255725 
 2958000   0.92405558   -2.2972925   -2.2972925   -1.5283401  0.027969854   -2.2972925   0.76895244  1255725 
 2959000   0.92415887   -2.2975025   -2.2975025   -1.5284641  0.032316716   -2.2975025    0.7690384  1255725 
 2960000     0.922779   -2.2967149   -2.2967149   -1.5288247  0.036580385   -2.2967149   0.76789013  1255725 
 2961000    0.9245547   -2.2979247   -2.2979247    -1.528557  0.027862315   -2.2979247   0.76936778  1255725 
 2962000   0.92322962    -2.296445    -2.296445   -1.5281799  0.027859198    -2.296445   0.76826512  1255725 
 2963000   0.92331221   -2.2968427   -2.2968427   -1.5285089  0.027139649   -2.2968427   0.76833384  1255725 
 2964000   0.92412863   -2.2973631   -2.2973631   -1.5283498  0.028299513   -2.2973631   0.76901323  1255725 
 2965000   0.92364721   -2.2968711   -2.2968711   -1.5282585  0.021147793   -2.2968711   0.76861261  1255725 
 2966000   0.92421877   -2.2969562   -2.2969562   -1.5278679  0.024138431   -2.2969562   0.76908824  1255725 
 2967000   0.92431369   -2.2967923   -2.2967923   -1.5276251  0.033338457   -2.2967923   0.76916722  1255725 
 2968000   0.92500412    -2.297183    -2.297183   -1.5274413  0.032116696    -2.297183   0.76974176  1255725 
 2969000   0.92492052   -2.2971013   -2.2971013   -1.5274291  0.036487744   -2.2971013    0.7696722  1255725 
 2970000     0.923314   -2.2953976   -2.2953976   -1.5270623  0.035404236   -2.2953976   0.76833533  1255725 
 2971000   0.92516447   -2.2970065   -2.2970065   -1.5271313  0.036094494   -2.2970065    0.7698752  1255725 
 2972000   0.92545339   -2.2970628   -2.2970628   -1.5269471    0.0340789   -2.2970628   0.77011563  1255725 
 2973000   0.92465453   -2.2958349   -2.2958349    -1.526384  0.040080502   -2.2958349   0.76945086  1255725 
 2974000   0.92464089   -2.2958365   -2.2958365    -1.526397  0.037852125   -2.2958365   0.76943951  1255725 
 2975000   0.92450244   -2.2955357   -2.2955357   -1.5262115  0.027252811   -2.2955357    0.7693243  1255725 
 2976000   0.92451002   -2.2958571   -2.2958571   -1.5265265  0.040324765   -2.2958571    0.7693306  1255725 
 2977000   0.92434809    -2.295081    -2.295081   -1.5258851  0.033814363    -2.295081   0.76919585  1255725 
 2978000   0.92624163   -2.2968812   -2.2968812   -1.5261097  0.025510184   -2.2968812   0.77077156  1255725 
 2979000    0.9249765   -2.2960985   -2.2960985   -1.5263797  0.026338465   -2.2960985   0.76971878  1255725 
 2980000   0.92360601    -2.294699    -2.294699   -1.5261206   0.03495585    -2.294699   0.76857833  1255725 
 2981000   0.92563461   -2.2964378   -2.2964378   -1.5261714  0.028430282   -2.2964378   0.77026643  1255725 
 2982000   0.92494069   -2.2955317   -2.2955317   -1.5258428  0.034993046   -2.2955317   0.76968898  1255725 
 2983000   0.92537333   -2.2960409   -2.2960409   -1.5259919  0.025971723   -2.2960409     0.770049  1255725 
 2984000   0.92575285   -2.2962236   -2.2962236   -1.5258587  0.024729698   -2.2962236   0.77036483  1255725 
 2985000   0.92443131   -2.2949086   -2.2949086   -1.5256435  0.036439844   -2.2949086    0.7692651  1255725 
 2986000   0.92487423   -2.2953589   -2.2953589   -1.5257252  0.022305233   -2.2953589   0.76963368  1255725 
 2987000    0.9255901   -2.2956662   -2.2956662   -1.5254368  0.034226236   -2.2956662   0.77022939  1255725 
 2988000   0.92530474   -2.2950757   -2.2950757   -1.5250837  0.026289491   -2.2950757   0.76999192  1255725 
 2989000   0.92565414   -2.2951288   -2.2951288   -1.5248462  0.029383048   -2.2951288   0.77028268  1255725 
 2990000   0.92335037   -2.2931925   -2.2931925   -1.5248269  0.039632712   -2.2931925    0.7683656  1255725 
 2991000   0.92598152   -2.2952094   -2.2952094   -1.5246543  0.034733859   -2.2952094   0.77055511  1255725 
 2992000   0.92570774   -2.2948069   -2.2948069   -1.5244796  0.035129781   -2.2948069   0.77032728  1255725 
 2993000   0.92512159     -2.29412     -2.29412   -1.5242805  0.037201076     -2.29412   0.76983952  1255725 
 2994000   0.92474984   -2.2941283   -2.2941283   -1.5245981  0.029867292   -2.2941283   0.76953017  1255725 
 2995000   0.92504563   -2.2938753   -2.2938753    -1.524099  0.030511391   -2.2938753   0.76977631  1255725 
 2996000    0.9259626   -2.2945923   -2.2945923   -1.5240529  0.025033875   -2.2945923   0.77053937  1255725 
 2997000   0.92635187   -2.2951286   -2.2951286   -1.5242654  0.029486765   -2.2951286    0.7708633  1255725 
 2998000   0.92552618   -2.2944025   -2.2944025   -1.5242263  0.038733274   -2.2944025    0.7701762  1255725 
 2999000   0.92473885   -2.2939817   -2.2939817   -1.5244607  0.033621993   -2.2939817   0.76952103  1255725 
 3000000   0.92499252   -2.2938237   -2.2938237   -1.5240916  0.022994007   -2.2938237   0.76973212  1255725 
Loop time of 14783.1 on 240 procs for 3000000 steps with 1255725 atoms

Performance: 87667.956 tau/day, 202.935 timesteps/s
96.6% CPU use with 240 MPI tasks x 1 OpenMP threads

MPI task timing breakdown:
Section |  min time  |  avg time  |  max time  |%varavg|  %CPU | %total
-----------------------------------------------------------------------
Pair    | 2892.6     | 3684.5     | 3939.5     | 288.4 |  98.4 | 24.92
Bond    | 2.099      | 2.4093     | 2.7241     |   8.4 | 100.0 |  0.02
Neigh   | 2117.6     | 4416       | 5302.5     | 874.5 |  99.5 | 29.87
Comm    | 3605.8     | 4903.4     | 7710.1     | 998.1 |  94.1 | 33.17
Output  | 90.986     | 91.659     | 91.678     |   0.5 |  89.2 |  0.62
Modify  | 1201.7     | 1517.1     | 2139.9     | 454.2 |  94.6 | 10.26
Other   |            | 168        |            |       |       |  1.14

Nlocal:        5232.19 ave        6340 max        4194 min
Histogram: 4 5 8 48 62 69 29 10 4 1
Nghost:        11864.9 ave       14493 max        5871 min
Histogram: 5 6 24 5 1 2 21 78 87 11
Neighs:        111435.0 ave      121431 max       79208 min
Histogram: 4 2 4 3 2 7 33 64 83 38

Total # of neighbors = 26744354
Ave neighs/atom = 21.297939
Ave special neighs/atom = 0.0000000
Neighbor list builds = 300000
Dangerous builds = 297000
Total wall time: 4:06:28
