LAMMPS (24 Dec 2020)
OMP_NUM_THREADS environment is not set. Defaulting to 1 thread. (src/comm.cpp:94)
  using 1 OpenMP thread(s) per MPI task
Created orthogonal box = (0.0000000 0.0000000 0.0000000) to (80.000000 80.000000 160.00000)
  6 by 4 by 8 MPI processor grid
Lattice spacing in x,y,z = 1.1485556 1.1485556 1.1485556
Created 421400 atoms
  create_atoms CPU = 0.131 seconds
421400 atoms in group solvent
Balancing ...
Neighbor list info ...
  update every 1 steps, delay 10 steps, check yes
  max neighbors/atom: 2000, page size: 100000
  master list distance cutoff = 1.9
  ghost atom cutoff = 1.9
  binsize = 0.95, bins = 85 85 169
  1 neighbor lists, perpetual/occasional/extra = 1 0 0
  (1) pair lj/smooth/linear, perpetual
      attributes: half, newton on
      pair build: half/bin/newton
      stencil: half/bin/3d/newton
      bin: standard
 rebalancing time: 0.031 seconds
  iteration count = 5
  initial/final maximal load/proc = 3888.0000 2376.0000
  initial/final imbalance factor  = 1.7714665 1.0825629
  x cuts: 0.0000000 0.16666667 0.33333333 0.50000000 0.66666667 0.83333333 1.0000000
  y cuts: 0.0000000 0.25000000 0.50000000 0.75000000 1.0000000
  z cuts: 0.0000000 0.089843750 0.16796875 0.24218750 0.32031250 0.39843750 0.48046875 0.55859375 1.0000000
dynamic group thermo defined
New timer settings: style=full  mode=nosync  timeout=off
Setting up Verlet run ...
  Unit style    : lj
  Current step  : 0
  Time step     : 0.005
Per MPI rank memory allocation (min/avg/max) = 9.959 | 9.999 | 10.10 Mbytes
Step Temp E_pair E_vdwl TotEng Press PotEng KinEng Atoms 
       0          0.1    2.2548251    2.2548251    2.4048248    5.4649428    2.2548251   0.14999964   421400 
    1000   0.72072398  -0.36092659  -0.36092659   0.72015682    1.3962579  -0.36092659    1.0810834   421400 
    2000   0.40582429  -0.55375248  -0.55375248  0.054982504    0.5413501  -0.55375248   0.60873499   421400 
    3000     0.240812  -0.62380372  -0.62380372  -0.26258658   0.18340072  -0.62380372   0.36121715   421400 
    4000   0.17006407  -0.66709084  -0.66709084  -0.41199535  0.055081907  -0.66709084   0.25509549   421400 
    5000   0.14079301  -0.70177968  -0.70177968  -0.49059066  0.003635062  -0.70177968   0.21118902   421400 
    6000   0.12738768  -0.73072475  -0.73072475  -0.53964369 -0.018517718  -0.73072475   0.19108106   421400 
    7000   0.12068053   -0.7554341   -0.7554341  -0.57441373  -0.02490189   -0.7554341   0.18102037   421400 
    8000   0.11711097  -0.77779117  -0.77779117  -0.60212513 -0.028468221  -0.77779117   0.17566604   421400 
    9000   0.11428869   -0.7969442   -0.7969442  -0.62551157 -0.029261981   -0.7969442   0.17143262   421400 
   10000   0.11263598  -0.81427508  -0.81427508  -0.64532152 -0.028538718  -0.81427508   0.16895357   421400 
   11000   0.11138973  -0.83039847  -0.83039847  -0.66331427 -0.027160453  -0.83039847    0.1670842   421400 
   12000   0.11044618  -0.84477243  -0.84477243  -0.67910355 -0.026993916  -0.84477243   0.16566888   421400 
   13000   0.10940839  -0.85759585  -0.85759585  -0.69348365 -0.023476543  -0.85759585    0.1641122   421400 
   14000   0.10865647  -0.86979134  -0.86979134  -0.70680703 -0.023984254  -0.86979134   0.16298432   421400 
   15000   0.10789804  -0.88079625  -0.88079625  -0.71894958 -0.020672779  -0.88079625   0.16184667   421400 
   16000   0.10691365   -0.8906307   -0.8906307  -0.73026061 -0.020789497   -0.8906307   0.16037009   421400 
   17000   0.10645998  -0.89987186  -0.89987186  -0.74018227 -0.021464363  -0.89987186   0.15968959   421400 
   18000   0.10584906   -0.9078898   -0.9078898  -0.74911659 -0.019180671   -0.9078898   0.15877321   421400 
   19000   0.10538405   -0.9151935   -0.9151935   -0.7571178 -0.019313945   -0.9151935    0.1580757   421400 
   20000   0.10476234  -0.92167125  -0.92167125  -0.76452812 -0.017444086  -0.92167125   0.15714313   421400 
   21000   0.10462853  -0.92783081  -0.92783081  -0.77088838 -0.017802102  -0.92783081   0.15694243   421400 
   22000   0.10403478  -0.93319586  -0.93319586  -0.77714406 -0.014579506  -0.93319586   0.15605179   421400 
   23000   0.10338755  -0.93802228  -0.93802228  -0.78294131 -0.016664821  -0.93802228   0.15508096   421400 
   24000   0.10331015  -0.94326982  -0.94326982  -0.78830497 -0.014498887  -0.94326982   0.15496485   421400 
   25000   0.10288117  -0.94733137  -0.94733137  -0.79300998 -0.015378346  -0.94733137   0.15432139   421400 
   26000     0.102748  -0.95128793  -0.95128793  -0.79716631 -0.014116366  -0.95128793   0.15412163   421400 
   27000   0.10261818  -0.95471793  -0.95471793  -0.80079103 -0.012256429  -0.95471793    0.1539269   421400 
   28000   0.10231756  -0.95825888  -0.95825888   -0.8047829 -0.012063802  -0.95825888   0.15347598   421400 
   29000   0.10199214  -0.96128905  -0.96128905   -0.8083012 -0.013675781  -0.96128905   0.15298785   421400 
   30000   0.10210849  -0.96468898  -0.96468898  -0.81152662  -0.01085243  -0.96468898   0.15316237   421400 
   31000   0.10187699  -0.96723452  -0.96723452  -0.81441939 -0.011439069  -0.96723452   0.15281512   421400 
   32000   0.10184044  -0.96997926  -0.96997926  -0.81721896 -0.012722642  -0.96997926    0.1527603   421400 
   33000   0.10156009  -0.97243374  -0.97243374  -0.82009397 -0.010384752  -0.97243374   0.15233977   421400 
   34000    0.1015898  -0.97480254  -0.97480254   -0.8224182 -0.0095030449  -0.97480254   0.15238434   421400 
   35000   0.10169913  -0.97716556  -0.97716556  -0.82461723 -0.011713694  -0.97716556   0.15254833   421400 
   36000   0.10134088  -0.97896534  -0.97896534  -0.82695438 -0.010573428  -0.97896534   0.15201095   421400 
   37000    0.1013211  -0.98076766  -0.98076766  -0.82878637 -0.0097397791  -0.98076766   0.15198129   421400 
   38000   0.10132545  -0.98281065  -0.98281065  -0.83082284 -0.010367597  -0.98281065   0.15198781   421400 
   39000    0.1011752  -0.98481149  -0.98481149  -0.83304904 -0.0081255142  -0.98481149   0.15176244   421400 
   40000   0.10128097  -0.98667994  -0.98667994  -0.83475885 -0.010587533  -0.98667994   0.15192109   421400 
   41000   0.10113939  -0.98812253  -0.98812253   -0.8364138 -0.0090055074  -0.98812253   0.15170873   421400 
   42000   0.10104476  -0.98990808  -0.98990808   -0.8383413 -0.0079422907  -0.98990808   0.15156678   421400 
   43000   0.10104417  -0.99160879  -0.99160879  -0.84004289 -0.0092996784  -0.99160879    0.1515659   421400 
   44000   0.10089971  -0.99285845  -0.99285845  -0.84150925 -0.008969623  -0.99285845    0.1513492   421400 
   45000   0.10103569  -0.99415655  -0.99415655  -0.84260338 -0.0079257131  -0.99415655   0.15155317   421400 
   46000   0.10125204  -0.99581815  -0.99581815  -0.84394046 -0.006740552  -0.99581815    0.1518777   421400 
   47000   0.10087479  -0.99685431  -0.99685431  -0.84554247 -0.0068282628  -0.99685431   0.15131183   421400 
   48000   0.10084157  -0.99847751  -0.99847751  -0.84721552 -0.0074956495  -0.99847751   0.15126199   421400 
   49000   0.10076886  -0.99973056  -0.99973056  -0.84857762 -0.009405596  -0.99973056   0.15115294   421400 
   50000   0.10079723   -1.0010242   -1.0010242  -0.84982866 -0.0076805409   -1.0010242   0.15119549   421400 
   51000   0.10079795   -1.0022791   -1.0022791  -0.85108255 -0.0083321758   -1.0022791   0.15119657   421400 
   52000   0.10078851   -1.0036184   -1.0036184  -0.85243595 -0.0059948247   -1.0036184   0.15118241   421400 
   53000   0.10075817   -1.0048653   -1.0048653   -0.8537284 -0.0066560663   -1.0048653    0.1511369   421400 
   54000   0.10062397   -1.0060489   -1.0060489  -0.85511328 -0.0077028383   -1.0060489    0.1509356   421400 
   55000   0.10064432   -1.0075745   -1.0075745  -0.85660838 -0.0082643556   -1.0075745   0.15096612   421400 
   56000   0.10081855   -1.0092126   -1.0092126  -0.85798515 -0.0055461948   -1.0092126   0.15122747   421400 
   57000   0.10076861   -1.0102156   -1.0102156  -0.85906301 -0.0065234653   -1.0102156   0.15115256   421400 
   58000   0.10080091   -1.0116423   -1.0116423  -0.86044127 -0.0059567572   -1.0116423   0.15120101   421400 
   59000   0.10091205   -1.0130058   -1.0130058  -0.86163813 -0.0054947868   -1.0130058   0.15136772   421400 
   60000   0.10080943   -1.0142275   -1.0142275  -0.86301367 -0.0064579402   -1.0142275   0.15121379   421400 
   61000   0.10063224    -1.015574    -1.015574  -0.86462602 -0.0066855974    -1.015574     0.150948   421400 
   62000   0.10078849   -1.0165048   -1.0165048   -0.8653224 -0.0067831381   -1.0165048   0.15118237   421400 
   63000    0.1007369   -1.0174268   -1.0174268  -0.86632177 -0.0057694767   -1.0174268   0.15110498   421400 
   64000   0.10101591   -1.0190974   -1.0190974  -0.86757393 -0.0064481425   -1.0190974    0.1515235   421400 
   65000   0.10084975   -1.0202358   -1.0202358  -0.86896156 -0.0049935662   -1.0202358   0.15127426   421400 
   66000   0.10104881   -1.0216057   -1.0216057   -0.8700329 -0.0044443936   -1.0216057   0.15157285   421400 
   67000   0.10086788   -1.0228825   -1.0228825  -0.87158105 -0.0057631858   -1.0228825   0.15130146   421400 
   68000   0.10095269   -1.0245235   -1.0245235  -0.87309484 -0.0055804912   -1.0245235   0.15142867   421400 
   69000   0.10083201   -1.0256792   -1.0256792   -0.8744316 -0.0063104488   -1.0256792   0.15124765   421400 
   70000   0.10074909   -1.0264853   -1.0264853  -0.87536204 -0.0053608492   -1.0264853   0.15112327   421400 
   71000   0.10078851   -1.0277992   -1.0277992  -0.87661679 -0.0047567988   -1.0277992    0.1511824   421400 
   72000   0.10096736   -1.0293775   -1.0293775  -0.87792687 -0.0052960415   -1.0293775   0.15145068   421400 
   73000   0.10082435   -1.0301972   -1.0301972  -0.87896104 -0.0056027328   -1.0301972   0.15123617   421400 
   74000   0.10107879   -1.0319436   -1.0319436   -0.8803258 -0.0067161801   -1.0319436   0.15161782   421400 
   75000   0.10076724   -1.0331667   -1.0331667  -0.88201624 -0.0037656683   -1.0331667   0.15115049   421400 
   76000   0.10086438   -1.0345155   -1.0345155  -0.88321928 -0.0046429046   -1.0345155   0.15129621   421400 
   77000   0.10108235   -1.0361833   -1.0361833  -0.88456017 -0.0051406977   -1.0361833   0.15162317   421400 
   78000   0.10087035   -1.0372114   -1.0372114   -0.8859062 -0.0035068727   -1.0372114   0.15130517   421400 
   79000   0.10109042   -1.0389054   -1.0389054  -0.88727013 -0.0044246359   -1.0389054   0.15163528   421400 
   80000   0.10099061   -1.0402862   -1.0402862  -0.88880068 -0.0028594065   -1.0402862   0.15148556   421400 
   81000   0.10077931   -1.0415827   -1.0415827  -0.89041405 -0.0041140044   -1.0415827   0.15116861   421400 
   82000   0.10107985   -1.0436477   -1.0436477  -0.89202829 -0.0054045836   -1.0436477   0.15161942   421400 
   83000   0.10082387   -1.0445778   -1.0445778  -0.89334236 -0.0028137244   -1.0445778   0.15123544   421400 
   84000   0.10099094   -1.0455774   -1.0455774  -0.89409135 -0.0045870531   -1.0455774   0.15148605   421400 
   85000     0.100832   -1.0470349   -1.0470349  -0.89578725 -0.0052443331   -1.0470349   0.15124764   421400 
   86000   0.10110751   -1.0487591   -1.0487591  -0.89709814 -0.0042273764   -1.0487591   0.15166091   421400 
   87000   0.10085492   -1.0502376   -1.0502376  -0.89895557 -0.0025591461   -1.0502376   0.15128203   421400 
   88000   0.10117936   -1.0519325   -1.0519325  -0.90016378 -0.0042692721   -1.0519325   0.15176869   421400 
   89000   0.10094267   -1.0532939   -1.0532939  -0.90188022 -0.0033972358   -1.0532939   0.15141365   421400 
   90000   0.10074066   -1.0544733   -1.0544733  -0.90336268 -0.0026284484   -1.0544733   0.15111063   421400 
   91000   0.10092483   -1.0561291   -1.0561291  -0.90474218 -0.0040193172   -1.0561291   0.15138689   421400 
   92000   0.10088568   -1.0574388   -1.0574388  -0.90611066 -0.0028551264   -1.0574388   0.15132816   421400 
   93000   0.10075423   -1.0586101   -1.0586101  -0.90747912 -0.0044762913   -1.0586101   0.15113099   421400 
   94000   0.10101263   -1.0601066   -1.0601066  -0.90858797 -0.0048709619   -1.0601066   0.15151859   421400 
   95000   0.10069486   -1.0613669   -1.0613669  -0.91032493 -0.0033864765   -1.0613669   0.15104193   421400 
   96000   0.10057107   -1.0628316   -1.0628316  -0.91197532 -0.0041496203   -1.0628316   0.15085625   421400 
   97000   0.10093021   -1.0646478   -1.0646478  -0.91325284 -0.0041426674   -1.0646478   0.15139496   421400 
   98000   0.10086051   -1.0656159   -1.0656159  -0.91432554 -0.0048149261   -1.0656159    0.1512904   421400 
   99000   0.10087986   -1.0670207   -1.0670207  -0.91570124 -0.0048017144   -1.0670207   0.15131942   421400 
  100000   0.10078005   -1.0681223   -1.0681223  -0.91695263 -0.0037860883   -1.0681223   0.15116972   421400 
  101000   0.10093852   -1.0692664   -1.0692664  -0.91785899 -0.0028312847   -1.0692664   0.15140742   421400 
  102000   0.10104621   -1.0708186   -1.0708186  -0.91924967 -0.0037818484   -1.0708186   0.15156896   421400 
  103000    0.1009847   -1.0724135   -1.0724135   -0.9209368 -0.0028352386   -1.0724135   0.15147669   421400 
  104000   0.10108348   -1.0734304   -1.0734304  -0.92180559 -0.0025202638   -1.0734304   0.15162486   421400 
  105000   0.10110708    -1.075108    -1.075108  -0.92344773 -0.002946674    -1.075108   0.15166026   421400 
  106000   0.10090699   -1.0761131   -1.0761131  -0.92475295 -0.0039642922   -1.0761131   0.15136012   421400 
  107000   0.10094692   -1.0773615   -1.0773615  -0.92594148 -0.0039719229   -1.0773615   0.15142001   421400 
  108000   0.10091936   -1.0785608   -1.0785608  -0.92718212 -0.0027945758   -1.0785608   0.15137868   421400 
  109000   0.10103529   -1.0797898   -1.0797898  -0.92823722 -0.0033887533   -1.0797898   0.15155257   421400 
  110000   0.10101498   -1.0809425   -1.0809425  -0.92942043 -0.0026873488   -1.0809425   0.15152212   421400 
  111000   0.10083509   -1.0824335   -1.0824335  -0.93118126 -0.0044468647   -1.0824335   0.15125228   421400 
  112000   0.10084689   -1.0837487   -1.0837487   -0.9324787 -0.0029953463   -1.0837487   0.15126998   421400 
  113000   0.10079124   -1.0848418   -1.0848418   -0.9336553 -0.0041373905   -1.0848418    0.1511865   421400 
  114000   0.10055836   -1.0862973   -1.0862973  -0.93546011 -0.0035580575   -1.0862973   0.15083718   421400 
  115000   0.10055273   -1.0871623   -1.0871623  -0.93633356 -0.0021746507   -1.0871623   0.15082873   421400 
  116000   0.10072409   -1.0887154   -1.0887154  -0.93762965 -0.0029037045   -1.0887154   0.15108578   421400 
  117000   0.10068602   -1.0898681   -1.0898681  -0.93883943 -0.0031214893   -1.0898681   0.15102868   421400 
  118000    0.1007404   -1.0912965   -1.0912965  -0.94018631 -0.0038379649   -1.0912965   0.15111024   421400 
  119000   0.10069141   -1.0922889   -1.0922889   -0.9412521 -0.00058383499   -1.0922889   0.15103676   421400 
  120000   0.10067445   -1.0931563   -1.0931563  -0.94214503 -0.0027958561   -1.0931563   0.15101131   421400 
  121000   0.10045081   -1.0936879   -1.0936879  -0.94301205 -0.0018332122   -1.0936879   0.15067586   421400 
  122000   0.10065215   -1.0953837   -1.0953837  -0.94440581 -0.00085164622   -1.0953837   0.15097787   421400 
  123000   0.10062021   -1.0962687   -1.0962687  -0.94533872 -0.0021317215   -1.0962687   0.15092996   421400 
  124000   0.10061532    -1.097136    -1.097136  -0.94621335 -0.0020284973    -1.097136   0.15092262   421400 
  125000   0.10051349   -1.0982292   -1.0982292  -0.94745934 -0.00067248912   -1.0982292   0.15076988   421400 
  126000    0.1007281   -1.0993548   -1.0993548  -0.94826298 -0.000968789   -1.0993548   0.15109179   421400 
  127000   0.10069472   -1.1001465   -1.1001465  -0.94910476 -0.0023017869   -1.1001465   0.15104172   421400 
  128000   0.10045683   -1.1009124   -1.1009124  -0.95022747 -0.0025903494   -1.1009124   0.15068488   421400 
  129000   0.10056816   -1.1021127   -1.1021127  -0.95126087 -0.0045250008   -1.1021127   0.15085188   421400 
  130000   0.10052285   -1.1029583   -1.1029583  -0.95217435 -0.0022439933   -1.1029583   0.15078392   421400 
  131000   0.10066145    -1.103822    -1.103822  -0.95283023 -0.0021308614    -1.103822   0.15099181   421400 
  132000   0.10073083   -1.1045885   -1.1045885  -0.95349265 -0.0030345089   -1.1045885   0.15109589   421400 
  133000   0.10056337   -1.1053062   -1.1053062  -0.95446155 -0.0040865304   -1.1053062    0.1508447   421400 
  134000   0.10053451   -1.1062698   -1.1062698  -0.95546837 -0.0028946509   -1.1062698   0.15080141   421400 
  135000   0.10060763    -1.107293    -1.107293  -0.95638191 -0.0024134932    -1.107293   0.15091109   421400 
  136000   0.10057734   -1.1082656   -1.1082656  -0.95739996 -0.0016297727   -1.1082656   0.15086565   421400 
  137000   0.10036395   -1.1085955   -1.1085955  -0.95804992 -0.00084161668   -1.1085955   0.15054557   421400 
  138000   0.10061546   -1.1097528   -1.1097528  -0.95882997 -0.0015638958   -1.1097528   0.15092283   421400 
  139000   0.10051795   -1.1103909   -1.1103909  -0.95961429 7.6056252e-05   -1.1103909   0.15077657   421400 
  140000    0.1005679   -1.1114614   -1.1114614   -0.9606099 -0.0012905164   -1.1114614   0.15085149   421400 
  141000   0.10047062    -1.111836    -1.111836  -0.96113042 -0.0011799125    -1.111836   0.15070557   421400 
  142000   0.10023714   -1.1125193   -1.1125193  -0.96216397 -0.0011718622   -1.1125193   0.15035535   421400 
  143000   0.10032679   -1.1132834   -1.1132834  -0.96279356 -0.00093014195   -1.1132834   0.15048983   421400 
  144000   0.10050867   -1.1145129   -1.1145129  -0.96375023 -0.0021300328   -1.1145129   0.15076265   421400 
  145000   0.10040162   -1.1150948   -1.1150948  -0.96449275 -0.0010511973   -1.1150948   0.15060207   421400 
  146000   0.10041981   -1.1158485   -1.1158485  -0.96521912 -0.00052347344   -1.1158485   0.15062935   421400 
  147000    0.1003619   -1.1160776   -1.1160776  -0.96553507 -0.00080067368   -1.1160776   0.15054249   421400 
  148000   0.10043378    -1.116725    -1.116725  -0.96607466 -0.0022756899    -1.116725   0.15065031   421400 
  149000   0.10033828   -1.1171216   -1.1171216  -0.96661452 -0.00071149541   -1.1171216   0.15050706   421400 
  150000   0.10037208   -1.1177093   -1.1177093  -0.96715155 -0.0012662917   -1.1177093   0.15055777   421400 
  151000   0.10056485   -1.1188261   -1.1188261   -0.9679792 -0.00076154677   -1.1188261   0.15084692   421400 
  152000   0.10047704   -1.1192859   -1.1192859  -0.96857068 -0.00097988267   -1.1192859    0.1507152   421400 
  153000   0.10049048   -1.1193944   -1.1193944  -0.96865907 0.00017453984   -1.1193944   0.15073536   421400 
  154000   0.10058358   -1.1202984   -1.1202984  -0.96942343 -0.0018449825   -1.1202984   0.15087501   421400 
  155000   0.10044982   -1.1208088   -1.1208088  -0.97013438 -0.0023765605   -1.1208088   0.15067437   421400 
  156000   0.10049918   -1.1211841   -1.1211841   -0.9704357 -0.0010390754   -1.1211841   0.15074842   421400 
  157000   0.10041156   -1.1216628   -1.1216628   -0.9710458 -0.0014461419   -1.1216628   0.15061698   421400 
  158000    0.1004197   -1.1222305   -1.1222305  -0.97160128 -0.001466565   -1.1222305    0.1506292   421400 
  159000   0.10017834   -1.1230108   -1.1230108  -0.97274361 -0.0020289331   -1.1230108   0.15026715   421400 
  160000   0.10019016   -1.1235569   -1.1235569    -0.973272 -0.0019744753   -1.1235569   0.15028488   421400 
  161000  0.099926847   -1.1234755   -1.1234755   -0.9735856 0.00036684109   -1.1234755   0.14988992   421400 
  162000   0.10028575   -1.1242581   -1.1242581  -0.97382987 -0.00070460963   -1.1242581   0.15042827   421400 
  163000    0.1003489    -1.124913    -1.124913  -0.97439003 -0.0012480042    -1.124913   0.15052299   421400 
  164000   0.10012263   -1.1251798   -1.1251798  -0.97499621 -0.0011283633   -1.1251798   0.15018359   421400 
  165000    0.1000386   -1.1255618   -1.1255618  -0.97550428 -0.0022709383   -1.1255618   0.15005754   421400 
  166000  0.099993067   -1.1257277   -1.1257277   -0.9757385 -0.0005913632   -1.1257277   0.14998924   421400 
  167000   0.10005399   -1.1263118   -1.1263118  -0.97623121 -0.00082401612   -1.1263118   0.15008063   421400 
  168000   0.10003298   -1.1266027   -1.1266027  -0.97655355 0.00031657906   -1.1266027   0.15004912   421400 
  169000   0.10010148   -1.1269893   -1.1269893  -0.97683738 -0.00085235247   -1.1269893   0.15015187   421400 
  170000   0.10005096   -1.1273154   -1.1273154  -0.97723927 -0.0010179273   -1.1273154   0.15007609   421400 
  171000   0.10046578   -1.1281303   -1.1281303  -0.97743195 -0.00025016153   -1.1281303   0.15069832   421400 
  172000   0.10018561   -1.1283866   -1.1283866  -0.97810855 -0.0016316251   -1.1283866   0.15027806   421400 
  173000    0.1001968   -1.1285672   -1.1285672  -0.97827232 -0.001368832   -1.1285672   0.15029485   421400 
  174000   0.10020498   -1.1288561   -1.1288561  -0.97854904 -0.00070404028   -1.1288561   0.15030711   421400 
  175000   0.10045001   -1.1292988   -1.1292988  -0.97862417 8.6281597e-05   -1.1292988   0.15067465   421400 
  176000   0.10031022   -1.1301616   -1.1301616  -0.97969661 -0.00062799828   -1.1301616   0.15046498   421400 
  177000   0.10037027   -1.1303841   -1.1303841  -0.97982909 -0.00056986566   -1.1303841   0.15055505   421400 
  178000   0.10003919   -1.1307068   -1.1307068  -0.98064835 -0.00093455324   -1.1307068   0.15005843   421400 
  179000   0.10018958   -1.1309479   -1.1309479  -0.98066393 -0.0014572634   -1.1309479   0.15028401   421400 
  180000    0.1001753   -1.1312086   -1.1312086  -0.98094599 -0.0013162151   -1.1312086    0.1502626   421400 
  181000   0.10028572   -1.1316311   -1.1316311  -0.98120288 -0.0012535518   -1.1316311   0.15042822   421400 
  182000   0.10034597   -1.1315333   -1.1315333  -0.98101469 -0.0012222633   -1.1315333    0.1505186   421400 
  183000   0.10024703   -1.1321506   -1.1321506  -0.98178039 -0.0011776569   -1.1321506   0.15037018   421400 
  184000   0.10040082   -1.1326448   -1.1326448  -0.98204388 -0.00064773777   -1.1326448   0.15060088   421400 
  185000   0.10030739   -1.1327457   -1.1327457  -0.98228499 9.778526e-05   -1.1327457   0.15046072   421400 
  186000   0.10008894   -1.1331679   -1.1331679  -0.98303482 0.00030039704   -1.1331679   0.15013305   421400 
  187000  0.099954593   -1.1333311   -1.1333311  -0.98339961 -0.00017062069   -1.1333311   0.14993153   421400 
  188000   0.10020387   -1.1337452   -1.1337452  -0.98343972 -0.0012064219   -1.1337452   0.15030544   421400 
  189000  0.099866879   -1.1338314   -1.1338314  -0.98403148 -0.00061956328   -1.1338314   0.14979996   421400 
  190000   0.10007973   -1.1344081   -1.1344081  -0.98428888 -0.0027961235   -1.1344081   0.15011924   421400 
  191000  0.099976065   -1.1342941   -1.1342941  -0.98433038 -0.0012603239   -1.1342941   0.14996374   421400 
  192000   0.10016946   -1.1347384   -1.1347384  -0.98448456 0.00070151566   -1.1347384   0.15025383   421400 
  193000   0.10030775   -1.1349934   -1.1349934  -0.98453209 -0.00087929185   -1.1349934   0.15046126   421400 
  194000   0.10010123   -1.1350319   -1.1350319   -0.9848804 0.00053264583   -1.1350319   0.15015149   421400 
  195000  0.099977925   -1.1353647   -1.1353647  -0.98539818 -0.00073027758   -1.1353647   0.14996653   421400 
  196000   0.10025299   -1.1359094   -1.1359094  -0.98553027 -0.0006220927   -1.1359094   0.15037913   421400 
  197000   0.10013045   -1.1360962   -1.1360962  -0.98590087 -0.0012498611   -1.1360962   0.15019532   421400 
  198000   0.10014888   -1.1360407   -1.1360407  -0.98581774 0.00020865398   -1.1360407   0.15022296   421400 
  199000   0.10008049   -1.1365995   -1.1365995  -0.98647915 -0.00031251639   -1.1365995   0.15012038   421400 
  200000  0.099892935   -1.1363758   -1.1363758   -0.9865367 0.0010096495   -1.1363758   0.14983905   421400 
  201000   0.10021365   -1.1369443   -1.1369443  -0.98662418 0.00044270433   -1.1369443   0.15032011   421400 
  202000   0.10010919    -1.137071    -1.137071  -0.98690753 -0.0018516779    -1.137071   0.15016344   421400 
  203000   0.10015622   -1.1371463   -1.1371463  -0.98691232 -6.3424511e-05   -1.1371463   0.15023397   421400 
  204000   0.10002407   -1.1372133   -1.1372133  -0.98717756 0.0010052313   -1.1372133   0.15003575   421400 
  205000   0.10012157   -1.1380414   -1.1380414  -0.98785942 -0.00088553393   -1.1380414     0.150182   421400 
  206000  0.099991681   -1.1381371   -1.1381371   -0.9881499 -0.0024570319   -1.1381371   0.14998717   421400 
  207000   0.10016355   -1.1382679   -1.1382679  -0.98802292 -0.00096561871   -1.1382679   0.15024498   421400 
  208000   0.10019929   -1.1384722   -1.1384722   -0.9881736 -0.00061537062   -1.1384722   0.15029857   421400 
  209000   0.10012667   -1.1385641   -1.1385641  -0.98837448 -0.00074329549   -1.1385641   0.15018964   421400 
  210000   0.10026651   -1.1389346   -1.1389346  -0.98853517 7.6747312e-05   -1.1389346    0.1503994   421400 
  211000   0.10013025   -1.1390181   -1.1390181   -0.9888231 -0.0013641441   -1.1390181   0.15019501   421400 
  212000   0.10013944   -1.1391799   -1.1391799  -0.98897108 -0.00028277735   -1.1391799    0.1502088   421400 
  213000   0.10003208   -1.1391404   -1.1391404  -0.98909265 0.00010357918   -1.1391404   0.15004777   421400 
  214000    0.1000993   -1.1398106   -1.1398106  -0.98966205 -0.00017816056   -1.1398106   0.15014859   421400 
  215000   0.10009309   -1.1403503   -1.1403503  -0.99021107 -0.00078943676   -1.1403503   0.15013928   421400 
  216000  0.099927629   -1.1404369   -1.1404369  -0.99054581 -0.0019111324   -1.1404369   0.14989109   421400 
  217000   0.10014532   -1.1407421   -1.1407421  -0.99052447 5.6872328e-06   -1.1407421   0.15021763   421400 
  218000   0.09993584   -1.1408148   -1.1408148   -0.9909114 -0.0003388353   -1.1408148    0.1499034   421400 
  219000  0.099951037   -1.1408998   -1.1408998  -0.99097363 0.00020067456   -1.1408998    0.1499262   421400 
  220000  0.099978457   -1.1407505   -1.1407505  -0.99078321 -0.001596669   -1.1407505   0.14996733   421400 
  221000   0.10001637    -1.141163    -1.141163  -0.99113878 0.00033894873    -1.141163   0.15002419   421400 
  222000   0.10019518   -1.1418862   -1.1418862  -0.99159376 -0.0024844564   -1.1418862   0.15029242   421400 
  223000  0.099924746   -1.1414639   -1.1414639  -0.99157711 -0.0013580233   -1.1414639   0.14988676   421400 
  224000   0.10019389   -1.1415574   -1.1415574  -0.99126687 -0.0012261989   -1.1415574   0.15029048   421400 
  225000   0.10021493   -1.1420641   -1.1420641  -0.99174208 0.00016002469   -1.1420641   0.15032204   421400 
  226000   0.10021458   -1.1421055   -1.1421055  -0.99178395 0.00059094711   -1.1421055   0.15032152   421400 
  227000  0.099980063   -1.1417173   -1.1417173  -0.99174752 0.0013700105   -1.1417173   0.14996974   421400 
  228000   0.10013432   -1.1421157   -1.1421157  -0.99191454 0.00096864652   -1.1421157   0.15020112   421400 
  229000   0.10001803   -1.1425281   -1.1425281  -0.99250145 -0.0012742876   -1.1425281   0.15002669   421400 
  230000    0.1001741   -1.1427824   -1.1427824  -0.99252158 -0.00062418722   -1.1427824    0.1502608   421400 
  231000  0.099939204   -1.1425488   -1.1425488  -0.99264031  0.000347482   -1.1425488   0.14990845   421400 
  232000   0.10014457    -1.142876    -1.142876  -0.99265949 0.0002901941    -1.142876    0.1502165   421400 
  233000   0.10007764   -1.1429071   -1.1429071  -0.99279098 -0.0014111946   -1.1429071    0.1501161   421400 
  234000   0.10009183   -1.1431787   -1.1431787  -0.99304132 0.0008230066   -1.1431787   0.15013739   421400 
  235000   0.10015385   -1.1436066   -1.1436066  -0.99337619 0.00052303253   -1.1436066   0.15023042   421400 
  236000   0.10014834   -1.1434563   -1.1434563  -0.99323419 0.00016624754   -1.1434563   0.15022215   421400 
  237000   0.10009789   -1.1436022   -1.1436022  -0.99345569 0.0010318866   -1.1436022   0.15014648   421400 
  238000   0.10014508   -1.1436249   -1.1436249  -0.99340762 0.00036270118   -1.1436249   0.15021726   421400 
  239000   0.10012321   -1.1438138   -1.1438138  -0.99362934 -0.0010171996   -1.1438138   0.15018446   421400 
  240000   0.10021352   -1.1442212   -1.1442212  -0.99390129 -0.00098764381   -1.1442212   0.15031993   421400 
  241000   0.10018923   -1.1441532   -1.1441532  -0.99386968 0.00099486523   -1.1441532   0.15028349   421400 
  242000   0.10008056   -1.1442199   -1.1442199  -0.99409946 0.0014734034   -1.1442199   0.15012048   421400 
  243000   0.10003604   -1.1444237   -1.1444237  -0.99436996 0.0019576823   -1.1444237   0.15005371   421400 
  244000   0.10017651   -1.1450345   -1.1450345   -0.9947701 -0.0016293328   -1.1450345   0.15026441   421400 
  245000  0.099934121    -1.144806    -1.144806  -0.99490516 -0.00045705051    -1.144806   0.14990083   421400 
  246000    0.1000089   -1.1449616   -1.1449616  -0.99494857 -0.00017365272   -1.1449616   0.15001299   421400 
  247000  0.099939433   -1.1453432   -1.1453432  -0.99543436 1.6225251e-05   -1.1453432   0.14990879   421400 
  248000   0.10002998   -1.1454124   -1.1454124  -0.99536783 -2.4203492e-05   -1.1454124   0.15004461   421400 
  249000   0.10014211   -1.1455971   -1.1455971   -0.9953843 0.00013588768   -1.1455971    0.1502128   421400 
  250000  0.099888718    -1.145525    -1.145525  -0.99569232 0.00014188202    -1.145525   0.14983272   421400 
  251000   0.10008788   -1.1459191   -1.1459191  -0.99578762 -0.00017820563   -1.1459191   0.15013147   421400 
  252000  0.099832808   -1.1461573   -1.1461573  -0.99640849 -0.00094691505   -1.1461573   0.14974886   421400 
  253000    0.1000476   -1.1463859   -1.1463859  -0.99631481 0.0013600176   -1.1463859   0.15007104   421400 
  254000   0.10003329   -1.1465614   -1.1465614  -0.99651183 -2.0910432e-05   -1.1465614   0.15004958   421400 
  255000  0.099917358   -1.1465428   -1.1465428  -0.99666714 -0.00085181282   -1.1465428   0.14987568   421400 
  256000  0.099932159   -1.1468216   -1.1468216  -0.99692372 0.00088082578   -1.1468216   0.14989788   421400 
  257000   0.10006313   -1.1468267   -1.1468267  -0.99673235 0.00030200909   -1.1468267   0.15009434   421400 
  258000  0.099938538    -1.146671    -1.146671  -0.99676352 -0.00019161697    -1.146671   0.14990745   421400 
  259000   0.10001287   -1.1467132   -1.1467132  -0.99669426 -0.0012091497   -1.1467132   0.15001894   421400 
  260000   0.10005649   -1.1473503   -1.1473503  -0.99726587 -0.00058593986   -1.1473503   0.15008438   421400 
  261000  0.099916762   -1.1472524   -1.1472524  -0.99737759 -0.00046711668   -1.1472524   0.14987479   421400 
  262000  0.099930762   -1.1474221   -1.1474221  -0.99752632 -0.001594064   -1.1474221   0.14989579   421400 
  263000  0.099920402    -1.147524    -1.147524  -0.99764378 -0.0014700205    -1.147524   0.14988025   421400 
  264000   0.10016324   -1.1477089   -1.1477089  -0.99746439 -0.0007553719   -1.1477089   0.15024451   421400 
  265000   0.10027854   -1.1478421   -1.1478421  -0.99742466 0.00027475651   -1.1478421   0.15041746   421400 
  266000   0.10011643   -1.1481369   -1.1481369  -0.99796262 -0.0020720039   -1.1481369   0.15017429   421400 
  267000   0.09987126   -1.1481154   -1.1481154   -0.9983089 -0.0014039893   -1.1481154   0.14980653   421400 
  268000   0.10005743   -1.1482318   -1.1482318  -0.99814603 -0.0011725626   -1.1482318   0.15008579   421400 
  269000   0.10001885   -1.1481533   -1.1481533  -0.99812536 -0.0012031263   -1.1481533   0.15002792   421400 
  270000   0.10003194    -1.148037    -1.148037  -0.99798944 -0.0010634824    -1.148037   0.15004756   421400 
  271000   0.10009709   -1.1480722   -1.1480722  -0.99792687 -0.00064580097   -1.1480722   0.15014528   421400 
  272000  0.099984255   -1.1482222   -1.1482222   -0.9982462 -0.0011789957   -1.1482222   0.14997603   421400 
  273000  0.099991563   -1.1483355   -1.1483355  -0.99834854 -0.00093373345   -1.1483355   0.14998699   421400 
  274000  0.099871035   -1.1481492   -1.1481492  -0.99834295 -0.00094019399   -1.1481492    0.1498062   421400 
  275000   0.10009998   -1.1488654   -1.1488654  -0.99871578 9.5110722e-05   -1.1488654   0.15014962   421400 
  276000   0.10020658   -1.1486486   -1.1486486  -0.99833909 0.00074014321   -1.1486486   0.15030951   421400 
  277000   0.10006111   -1.1487758   -1.1487758  -0.99868446 0.00060262167   -1.1487758   0.15009131   421400 
  278000    0.1002165   -1.1489286   -1.1489286  -0.99860416 -0.00060843875   -1.1489286    0.1503244   421400 
  279000   0.10015955   -1.1491638   -1.1491638  -0.99892484 -0.0016584824   -1.1491638   0.15023896   421400 
  280000  0.099958564   -1.1489554   -1.1489554  -0.99901796 0.00028089981   -1.1489554   0.14993749   421400 
  281000   0.10008574   -1.1496631   -1.1496631  -0.99953485  0.002001892   -1.1496631   0.15012825   421400 
  282000   0.10004942   -1.1496838   -1.1496838  -0.99961002 0.0014174645   -1.1496838   0.15007377   421400 
  283000   0.10010861   -1.1497659   -1.1497659   -0.9996033 -0.0015957961   -1.1497659   0.15016256   421400 
  284000  0.099921471   -1.1496783   -1.1496783  -0.99979646 -0.00018776234   -1.1496783   0.14988185   421400 
  285000  0.099994507   -1.1500523   -1.1500523   -1.0000609 0.00031878288   -1.1500523    0.1499914   421400 
  286000   0.10012812   -1.1502381   -1.1502381   -1.0000462 -8.7605286e-05   -1.1502381   0.15019182   421400 
  287000   0.10025728   -1.1500307   -1.1500307  -0.99964517 0.00071568199   -1.1500307   0.15038556   421400 
  288000  0.099871323   -1.1496889   -1.1496889  -0.99988223 -0.00022564094   -1.1496889   0.14980663   421400 
  289000   0.10020313   -1.1499581   -1.1499581  -0.99965379 0.00041426764   -1.1499581   0.15030434   421400 
  290000   0.10011568   -1.1501639   -1.1501639   -0.9999907 -0.00082964643   -1.1501639   0.15017316   421400 
  291000  0.099989177   -1.1498464   -1.1498464  -0.99986298 -0.00026811944   -1.1498464   0.14998341   421400 
  292000   0.10032279    -1.150302    -1.150302  -0.99981816 0.00015644669    -1.150302   0.15048382   421400 
  293000   0.10015133   -1.1503589   -1.1503589   -1.0001322 -0.00026782806   -1.1503589   0.15022664   421400 
  294000   0.10027411   -1.1501929   -1.1501929   -0.9997821 0.00096396651   -1.1501929   0.15041081   421400 
  295000   0.10027102    -1.150541    -1.150541   -1.0001348 0.0015069005    -1.150541   0.15040617   421400 
  296000   0.10009173   -1.1505754   -1.1505754   -1.0004381 0.00041950143   -1.1505754   0.15013723   421400 
  297000   0.10005659   -1.1511118   -1.1511118   -1.0010273 -0.0010452536   -1.1511118   0.15008452   421400 
  298000   0.10001952   -1.1509803   -1.1509803   -1.0009514 -0.00048021305   -1.1509803   0.15002892   421400 
  299000    0.1000146   -1.1511979   -1.1511979   -1.0011763 -0.00074434984   -1.1511979   0.15002155   421400 
  300000    0.1000073   -1.1513266   -1.1513266    -1.001316 5.1168149e-05   -1.1513266    0.1500106   421400 
  301000   0.10005221   -1.1515044   -1.1515044   -1.0014264 0.00082873505   -1.1515044   0.15007795   421400 
  302000   0.10003438   -1.1515437   -1.1515437   -1.0014925 0.00075110844   -1.1515437   0.15005121   421400 
  303000   0.10010764   -1.1518534   -1.1518534   -1.0016923 0.00031012322   -1.1518534   0.15016111   421400 
  304000  0.099967658   -1.1517867   -1.1517867   -1.0018356 0.0005431468   -1.1517867   0.14995113   421400 
  305000   0.10004845   -1.1524232   -1.1524232   -1.0023509  0.001301243   -1.1524232   0.15007232   421400 
  306000  0.099865602    -1.152281    -1.152281    -1.002483 -0.00048901615    -1.152281   0.14979805   421400 
  307000   0.10005477   -1.1525143   -1.1525143   -1.0024325 0.00027048906   -1.1525143    0.1500818   421400 
  308000  0.099985965   -1.1526137   -1.1526137   -1.0026352 -0.0003325079   -1.1526137   0.14997859   421400 
  309000   0.10013129   -1.1526216   -1.1526216    -1.002425 0.00041430369   -1.1526216   0.15019658   421400 
  310000   0.10022184    -1.152405    -1.152405   -1.0020725 -5.1890296e-05    -1.152405   0.15033241   421400 
  311000   0.10003982   -1.1523998   -1.1523998   -1.0023404  0.001385621   -1.1523998   0.15005938   421400 
  312000  0.099933806   -1.1523733   -1.1523733    -1.002473  -0.00129846   -1.1523733   0.14990035   421400 
  313000   0.10013958     -1.15281     -1.15281    -1.002601 0.00057644917     -1.15281   0.15020901   421400 
  314000    0.1003736   -1.1528177   -1.1528177   -1.0022576 0.0020631123   -1.1528177   0.15056004   421400 
  315000   0.10015773   -1.1528363   -1.1528363      -1.0026 0.00060127911   -1.1528363   0.15023624   421400 
  316000   0.10022303   -1.1528902   -1.1528902    -1.002556 0.00053876705   -1.1528902    0.1503342   421400 
  317000  0.099928535   -1.1529057   -1.1529057   -1.0030133 0.0014548903   -1.1529057   0.14989245   421400 
  318000   0.10000398   -1.1530786   -1.1530786    -1.003073 -1.6607202e-05   -1.1530786   0.15000562   421400 
  319000  0.099954356   -1.1531745   -1.1531745   -1.0032433 -9.7154857e-05   -1.1531745   0.14993118   421400 
  320000   0.10013419   -1.1536461   -1.1536461   -1.0034452 -8.2398125e-06   -1.1536461   0.15020092   421400 
  321000   0.10009467   -1.1537486   -1.1537486    -1.003607 -0.0013076548   -1.1537486   0.15014165   421400 
  322000  0.099927659   -1.1535003   -1.1535003   -1.0036091 0.0018428879   -1.1535003   0.14989113   421400 
  323000   0.10015352   -1.1536828   -1.1536828   -1.0034529 0.0010384758   -1.1536828   0.15022993   421400 
  324000   0.10016263   -1.1537483   -1.1537483   -1.0035047 0.0003157908   -1.1537483   0.15024359   421400 
  325000   0.10001874   -1.1537395   -1.1537395   -1.0037117 0.00063614823   -1.1537395   0.15002775   421400 
  326000   0.10012272   -1.1539915   -1.1539915   -1.0038077 0.0014927329   -1.1539915   0.15018373   421400 
  327000     0.100295   -1.1539598   -1.1539598   -1.0035177 0.00071129266   -1.1539598   0.15044214   421400 
  328000   0.10018109   -1.1536381   -1.1536381   -1.0033669 0.0013136983   -1.1536381   0.15027127   421400 
  329000   0.10023411    -1.153909    -1.153909   -1.0035581 0.0013910737    -1.153909   0.15035081   421400 
  330000   0.10007272   -1.1541753   -1.1541753   -1.0040665 -2.3896062e-05   -1.1541753   0.15010872   421400 
  331000   0.10020713   -1.1544761   -1.1544761   -1.0041658 -0.00024556941   -1.1544761   0.15031033   421400 
  332000   0.10009693   -1.1543748   -1.1543748   -1.0042298 -0.00069413419   -1.1543748   0.15014504   421400 
  333000  0.099994539   -1.1544774   -1.1544774    -1.004486 0.00078787639   -1.1544774   0.14999145   421400 
  334000   0.10028739      -1.1549      -1.1549   -1.0044693 0.00050839569      -1.1549   0.15043073   421400 
  335000   0.10005292   -1.1547388   -1.1547388   -1.0046598 -0.00013007937   -1.1547388   0.15007902   421400 
  336000   0.10013784   -1.1547421   -1.1547421   -1.0045357 0.0013854976   -1.1547421    0.1502064   421400 
  337000   0.10021995   -1.1547607   -1.1547607   -1.0044311 -8.5998464e-05   -1.1547607   0.15032956   421400 
  338000   0.10002793   -1.1550358   -1.1550358   -1.0049943 1.211578e-05   -1.1550358   0.15004154   421400 
  339000   0.10020197   -1.1551144   -1.1551144   -1.0048118 0.0013035923   -1.1551144   0.15030259   421400 
  340000   0.10022748   -1.1555748   -1.1555748   -1.0052339 0.0017189363   -1.1555748   0.15034087   421400 
  341000   0.10010788   -1.1556294   -1.1556294    -1.005468 -4.9997261e-05   -1.1556294   0.15016146   421400 
  342000   0.10015357   -1.1555823   -1.1555823   -1.0053523 -0.0016558136   -1.1555823      0.15023   421400 
  343000   0.10007696   -1.1553997   -1.1553997   -1.0052846 -0.00010739801   -1.1553997   0.15011509   421400 
  344000   0.10017711   -1.1557441   -1.1557441   -1.0054788 -0.00030579568   -1.1557441   0.15026531   421400 
  345000   0.10006369   -1.1556348   -1.1556348   -1.0055396 -9.73925e-05   -1.1556348   0.15009518   421400 
  346000   0.10002478   -1.1559476   -1.1559476   -1.0059108 -0.00032793681   -1.1559476   0.15003681   421400 
  347000  0.099954025   -1.1557846   -1.1557846    -1.005854 -0.00050858855   -1.1557846   0.14993068   421400 
  348000   0.10010312   -1.1558302   -1.1558302   -1.0056759 0.0010617229   -1.1558302   0.15015432   421400 
  349000  0.099660439   -1.1560172   -1.1560172   -1.0065269 -0.001163592   -1.1560172    0.1494903   421400 
  350000  0.099966377   -1.1563299   -1.1563299   -1.0063807 -0.0013888662   -1.1563299   0.14994921   421400 
  351000    0.1001396   -1.1564958   -1.1564958   -1.0062867  0.001668837   -1.1564958   0.15020905   421400 
  352000   0.10001477   -1.1565262   -1.1565262   -1.0065044 0.00020179524   -1.1565262    0.1500218   421400 
  353000  0.099881176   -1.1563961   -1.1563961   -1.0065747 0.00051314376   -1.1563961   0.14982141   421400 
  354000  0.099940868   -1.1566321   -1.1566321   -1.0067211 0.00040672799   -1.1566321   0.14991095   421400 
  355000   0.10011511   -1.1569798   -1.1569798   -1.0068075 -0.00088669432   -1.1569798   0.15017231   421400 
  356000   0.10010996   -1.1568526   -1.1568526    -1.006688  0.001731977   -1.1568526   0.15016459   421400 
  357000   0.10013513   -1.1568515   -1.1568515   -1.0066492 0.00071029497   -1.1568515   0.15020233   421400 
  358000   0.10004071   -1.1568116   -1.1568116   -1.0067509 -0.00081963438   -1.1568116    0.1500607   421400 
  359000   0.10027426   -1.1569906   -1.1569906   -1.0065796 0.00068164027   -1.1569906   0.15041103   421400 
  360000   0.10019924   -1.1567656   -1.1567656   -1.0064671 0.0012002581   -1.1567656    0.1502985   421400 
  361000   0.10013583   -1.1565679   -1.1565679   -1.0063645 0.00081618866   -1.1565679   0.15020339   421400 
  362000   0.10015009     -1.15684     -1.15684   -1.0066153 -0.0003547355     -1.15684   0.15022478   421400 
  363000  0.099958086   -1.1566895   -1.1566895   -1.0067528 0.0007509486   -1.1566895   0.14993677   421400 
  364000   0.10002336   -1.1574076   -1.1574076   -1.0073729 0.00015742781   -1.1574076   0.15003468   421400 
  365000  0.099941381    -1.157353    -1.157353   -1.0074413 0.00058522431    -1.157353   0.14991172   421400 
  366000   0.10025417   -1.1577317   -1.1577317   -1.0073508 0.00092353506   -1.1577317   0.15038089   421400 
  367000   0.10028851   -1.1579111   -1.1579111   -1.0074787 -0.0007974621   -1.1579111    0.1504324   421400 
  368000   0.10012323    -1.157836    -1.157836   -1.0076515 0.0022536294    -1.157836   0.15018449   421400 
  369000   0.10016715   -1.1579025   -1.1579025   -1.0076521 0.00030505748   -1.1579025   0.15025037   421400 
  370000   0.10026294   -1.1576179   -1.1576179   -1.0072239 -0.00055741072   -1.1576179   0.15039406   421400 
  371000   0.10004928   -1.1575918   -1.1575918   -1.0075182 0.00031848814   -1.1575918   0.15007357   421400 
  372000   0.10006912   -1.1580256   -1.1580256   -1.0079223 0.00092150013   -1.1580256   0.15010333   421400 
  373000   0.10022893   -1.1578004   -1.1578004   -1.0074573 0.0013007948   -1.1578004   0.15034304   421400 
  374000   0.10023267     -1.15809     -1.15809   -1.0077414 0.0011430496     -1.15809   0.15034865   421400 
  375000    0.1000514   -1.1582327   -1.1582327    -1.008156 0.00051189149   -1.1582327   0.15007675   421400 
  376000  0.099958687   -1.1581197   -1.1581197   -1.0081821 0.0010138865   -1.1581197   0.14993768   421400 
  377000   0.10002768   -1.1581288   -1.1581288   -1.0080876 0.0010833365   -1.1581288   0.15004117   421400 
  378000   0.10014273   -1.1583545   -1.1583545   -1.0081408 0.00079332865   -1.1583545   0.15021374   421400 
  379000   0.10010703   -1.1585513   -1.1585513   -1.0083912 0.0019134379   -1.1585513   0.15016018   421400 
  380000  0.099981469    -1.158549    -1.158549   -1.0085772 -4.3450466e-06    -1.158549   0.14997185   421400 
  381000  0.099854598   -1.1583284   -1.1583284   -1.0085468 0.0019738349   -1.1583284   0.14978154   421400 
  382000   0.10020582   -1.1587612   -1.1587612   -1.0084528 -0.0010919513   -1.1587612   0.15030838   421400 
  383000   0.10017059   -1.1589503   -1.1589503   -1.0086947 -0.00060818276   -1.1589503   0.15025553   421400 
  384000  0.099928273   -1.1587178   -1.1587178   -1.0088257 0.00077277017   -1.1587178   0.14989205   421400 
  385000   0.10031702   -1.1591336   -1.1591336   -1.0086585 0.0012389139   -1.1591336   0.15047518   421400 
  386000   0.10013269   -1.1593713   -1.1593713   -1.0091727 -7.0777277e-05   -1.1593713   0.15019868   421400 
  387000   0.10015083   -1.1592946   -1.1592946   -1.0090687 -0.00047792664   -1.1592946   0.15022588   421400 
  388000   0.10020116   -1.1596902   -1.1596902   -1.0093888 -0.00030781169   -1.1596902   0.15030139   421400 
  389000  0.099990911   -1.1596306   -1.1596306   -1.0096446 -0.00018033726   -1.1596306   0.14998601   421400 
  390000   0.09984692   -1.1597999   -1.1597999   -1.0100299 -0.00033146294   -1.1597999   0.14977002   421400 
  391000   0.10004692   -1.1600639   -1.1600639   -1.0099939 0.0016135141   -1.1600639   0.15007003   421400 
  392000  0.099982226   -1.1599657   -1.1599657   -1.0099927 0.0014166869   -1.1599657   0.14997298   421400 
  393000  0.099920197    -1.160066    -1.160066    -1.010186 0.00013597619    -1.160066   0.14987994   421400 
  394000   0.10012813   -1.1603073   -1.1603073   -1.0101154 0.0019995158   -1.1603073   0.15019184   421400 
  395000   0.10000629    -1.160403    -1.160403   -1.0103939 0.00028186371    -1.160403   0.15000907   421400 
  396000   0.10010377   -1.1606228   -1.1606228   -1.0104675 0.0019983442   -1.1606228   0.15015529   421400 
  397000  0.099845184   -1.1604675   -1.1604675   -1.0107001 0.00057790056   -1.1604675   0.14976742   421400 
  398000   0.10002399   -1.1603045   -1.1603045   -1.0102689 0.00076354274   -1.1603045   0.15003563   421400 
  399000  0.099913447   -1.1602314   -1.1602314   -1.0103615 0.00051280596   -1.1602314   0.14986982   421400 
  400000   0.10002517   -1.1605113   -1.1605113   -1.0104739 0.0012735931   -1.1605113   0.15003739   421400 
  401000    0.1001849   -1.1603308   -1.1603308   -1.0100538 0.00042000128   -1.1603308   0.15027699   421400 
  402000   0.10025573   -1.1605256   -1.1605256   -1.0101423 0.00080974575   -1.1605256   0.15038324   421400 
  403000   0.10005566   -1.1601553   -1.1601553   -1.0100721 -0.00069432091   -1.1601553   0.15008313   421400 
  404000   0.10016804   -1.1605652   -1.1605652   -1.0103135 0.00028774628   -1.1605652   0.15025171   421400 
  405000   0.10016717   -1.1605416   -1.1605416   -1.0102912 -0.00019892767   -1.1605416    0.1502504   421400 
  406000   0.10020248   -1.1607401   -1.1607401   -1.0104367 0.00089060567   -1.1607401   0.15030337   421400 
  407000   0.10012895   -1.1607125   -1.1607125   -1.0105194 0.0013367568   -1.1607125   0.15019307   421400 
  408000   0.10012539   -1.1609826   -1.1609826   -1.0107949 5.1524365e-05   -1.1609826   0.15018773   421400 
  409000  0.099942878   -1.1609913   -1.1609913   -1.0110773 0.0012469045   -1.1609913   0.14991396   421400 
  410000   0.10005443   -1.1607667   -1.1607667   -1.0106855 0.00089070862   -1.1607667   0.15008129   421400 
  411000   0.10001094   -1.1608251   -1.1608251    -1.010809 -4.3178484e-05   -1.1608251   0.15001606   421400 
  412000    0.1000874   -1.1611571   -1.1611571   -1.0110263 0.00016381206   -1.1611571   0.15013075   421400 
  413000   0.10000249   -1.1611728   -1.1611728   -1.0111694 0.00014137881   -1.1611728   0.15000337   421400 
  414000   0.10002108   -1.1612963   -1.1612963    -1.011265 0.0013793951   -1.1612963   0.15003126   421400 
  415000   0.10016986   -1.1616485   -1.1616485    -1.011394 -0.0001294291   -1.1616485   0.15025443   421400 
  416000  0.099929122   -1.1617032   -1.1617032   -1.0118099 -1.4480091e-05   -1.1617032   0.14989333   421400 
  417000  0.099983707   -1.1615022   -1.1615022   -1.0115269 0.00068665986   -1.1615022   0.14997521   421400 
  418000  0.099930171   -1.1610856   -1.1610856   -1.0111907 0.0013101308   -1.1610856    0.1498949   421400 
  419000   0.10011929   -1.1615637   -1.1615637   -1.0113851 0.0005542079   -1.1615637   0.15017857   421400 
  420000  0.099997161    -1.161673    -1.161673   -1.0116776 -0.00034540934    -1.161673   0.14999539   421400 
  421000  0.099941776   -1.1615098   -1.1615098   -1.0115975 0.0011731104   -1.1615098   0.14991231   421400 
  422000    0.1000484   -1.1617309   -1.1617309   -1.0116586 -5.9571462e-05   -1.1617309   0.15007224   421400 
  423000   0.10000863   -1.1616648   -1.1616648   -1.0116522 -0.00041117779   -1.1616648    0.1500126   421400 
  424000  0.099972885   -1.1619085   -1.1619085   -1.0119495 -0.0011152105   -1.1619085   0.14995897   421400 
  425000   0.10006904    -1.162402    -1.162402   -1.0122988 -0.0011091701    -1.162402    0.1501032   421400 
  426000   0.10011581   -1.1620595   -1.1620595   -1.0118862 0.0013819626   -1.1620595   0.15017336   421400 
  427000   0.10005038   -1.1622751   -1.1622751   -1.0121999 0.00047837221   -1.1622751   0.15007522   421400 
  428000  0.099943307   -1.1622606   -1.1622606    -1.012346 0.00089911855   -1.1622606    0.1499146   421400 
  429000  0.099942056   -1.1625912   -1.1625912   -1.0126785 -0.00050835867   -1.1625912   0.14991273   421400 
  430000   0.09991733   -1.1625253   -1.1625253   -1.0126497 0.0004925348   -1.1625253   0.14987564   421400 
  431000   0.10010433   -1.1624062   -1.1624062   -1.0122501 0.0013833377   -1.1624062   0.15015614   421400 
  432000  0.099979481   -1.1622549   -1.1622549    -1.012286 0.0003686409   -1.1622549   0.14996887   421400 
  433000  0.099844093   -1.1620803   -1.1620803   -1.0123145 0.0015479282   -1.1620803   0.14976578   421400 
  434000    0.1000251   -1.1621701   -1.1621701   -1.0121329 0.00039205742   -1.1621701   0.15003729   421400 
  435000   0.10001838   -1.1624167   -1.1624167   -1.0123895 -0.0013397092   -1.1624167   0.15002721   421400 
  436000   0.10023293   -1.1631578   -1.1631578   -1.0128088 0.00054572945   -1.1631578   0.15034904   421400 
  437000  0.099853379   -1.1629698   -1.1629698   -1.0131901 -0.0010629923   -1.1629698   0.14977971   421400 
  438000  0.099871649   -1.1632678   -1.1632678   -1.0134606 0.00011124924   -1.1632678   0.14980712   421400 
  439000   0.10010482    -1.163344    -1.163344   -1.0131871 -0.0010109754    -1.163344   0.15015687   421400 
  440000   0.10004063   -1.1631661   -1.1631661   -1.0131056 0.00087961699   -1.1631661    0.1500606   421400 
  441000   0.10030314    -1.163324    -1.163324   -1.0128697 0.00093553641    -1.163324   0.15045436   421400 
  442000   0.10006057   -1.1631708   -1.1631708   -1.0130803 6.7202105e-05   -1.1631708    0.1500905   421400 
  443000  0.099910194   -1.1629983   -1.1629983   -1.0131333 0.00053821015   -1.1629983   0.14986493   421400 
  444000   0.10013067   -1.1632691   -1.1632691   -1.0130735 -0.001319864   -1.1632691   0.15019565   421400 
  445000   0.10025596   -1.1632494   -1.1632494   -1.0128659 0.00080398219   -1.1632494   0.15038358   421400 
  446000   0.10014051   -1.1637452   -1.1637452   -1.0135348 0.00025703716   -1.1637452    0.1502104   421400 
  447000   0.10008525   -1.1637537   -1.1637537   -1.0136262 0.00081788929   -1.1637537   0.15012752   421400 
  448000  0.099963583   -1.1636405   -1.1636405   -1.0136955 7.5802344e-05   -1.1636405   0.14994502   421400 
  449000  0.099853936   -1.1633731   -1.1633731   -1.0135925 0.0020788233   -1.1633731   0.14978055   421400 
  450000   0.10012312   -1.1638025   -1.1638025   -1.0136181 0.00079566098   -1.1638025   0.15018433   421400 
  451000  0.099978514   -1.1638814   -1.1638814    -1.013914  0.001293134   -1.1638814   0.14996742   421400 
  452000   0.10005926   -1.1641867   -1.1641867   -1.0140981 0.0031115848   -1.1641867   0.15008854   421400 
  453000  0.099890058   -1.1637757   -1.1637757    -1.013941 0.0008898278   -1.1637757   0.14983473   421400 
  454000   0.10001471   -1.1636196   -1.1636196   -1.0135978 0.0012623438   -1.1636196   0.15002172   421400 
  455000   0.10025302   -1.1641382   -1.1641382   -1.0137591 0.0015915887   -1.1641382   0.15037917   421400 
  456000   0.10005202   -1.1642312   -1.1642312   -1.0141535  0.001265992   -1.1642312   0.15007768   421400 
  457000   0.10005007   -1.1641075   -1.1641075   -1.0140327 0.00063613338   -1.1641075   0.15007475   421400 
  458000   0.10012045   -1.1641651   -1.1641651   -1.0139847 0.0012501602   -1.1641651   0.15018031   421400 
  459000   0.10003839   -1.1645032   -1.1645032    -1.014446 0.0012116378   -1.1645032   0.15005724   421400 
  460000  0.099976932    -1.164368    -1.164368    -1.014403 0.00087800847    -1.164368   0.14996504   421400 
  461000  0.099946608   -1.1644554   -1.1644554   -1.0145359 -0.0005061195   -1.1644554   0.14991956   421400 
  462000  0.099958369   -1.1644122   -1.1644122    -1.014475 0.00024967757   -1.1644122    0.1499372   421400 
  463000   0.10002203   -1.1645584   -1.1645584   -1.0145257 4.3271964e-05   -1.1645584   0.15003268   421400 
  464000   0.10011073   -1.1647997   -1.1647997    -1.014634  0.001874502   -1.1647997   0.15016574   421400 
  465000   0.10002337   -1.1647255   -1.1647255   -1.0146908 9.5589967e-05   -1.1647255    0.1500347   421400 
  466000  0.099996947   -1.1649808   -1.1649808   -1.0149858 0.0020529774   -1.1649808   0.14999506   421400 
  467000   0.10002826   -1.1652108   -1.1652108   -1.0151688 0.00026322847   -1.1652108   0.15004203   421400 
  468000   0.10030835   -1.1655861   -1.1655861   -1.0151239 0.00048683744   -1.1655861   0.15046217   421400 
  469000   0.10000765    -1.164971    -1.164971   -1.0149599  0.002030608    -1.164971   0.15001112   421400 
  470000  0.099977539   -1.1650538   -1.1650538   -1.0150879 0.0017678462   -1.1650538   0.14996595   421400 
  471000   0.10020361   -1.1652455   -1.1652455   -1.0149405 0.0013569807   -1.1652455   0.15030505   421400 
  472000   0.10013928   -1.1652715   -1.1652715   -1.0150629 0.0024689307   -1.1652715   0.15020856   421400 
  473000   0.10026195   -1.1653622   -1.1653622   -1.0149696 -0.00012828174   -1.1653622   0.15039257   421400 
  474000   0.10001646   -1.1650562   -1.1650562   -1.0150318 0.00082723433   -1.1650562   0.15002434   421400 
  475000   0.10024278   -1.1654246   -1.1654246   -1.0150608   0.00150971   -1.1654246   0.15036382   421400 
  476000   0.10018927    -1.165577    -1.165577   -1.0152935 0.00045365885    -1.165577   0.15028354   421400 
  477000   0.10012094   -1.1654422   -1.1654422   -1.0152612 0.0017969632   -1.1654422   0.15018106   421400 
  478000   0.10028107   -1.1654219   -1.1654219   -1.0150007 -7.1410537e-05   -1.1654219   0.15042125   421400 
  479000   0.10012719   -1.1652656   -1.1652656   -1.0150752  0.001186222   -1.1652656   0.15019043   421400 
  480000  0.099947141   -1.1655004   -1.1655004     -1.01558 -0.00030429146   -1.1655004   0.14992036   421400 
  481000  0.099871131   -1.1652768   -1.1652768   -1.0154704 0.00068604208   -1.1652768   0.14980634   421400 
  482000  0.099853049   -1.1655955   -1.1655955   -1.0158163 0.0017689265   -1.1655955   0.14977922   421400 
  483000  0.099771955   -1.1656279   -1.1656279   -1.0159703 0.0011254067   -1.1656279   0.14965758   421400 
  484000  0.099745536   -1.1658621   -1.1658621   -1.0162441 0.0021074588   -1.1658621   0.14961795   421400 
  485000   0.10007932   -1.1659238   -1.1659238   -1.0158052 7.663221e-06   -1.1659238   0.15011862   421400 
  486000   0.10000467   -1.1656391   -1.1656391   -1.0156324 0.00029322047   -1.1656391   0.15000665   421400 
  487000  0.099890624   -1.1655885   -1.1655885   -1.0157529 0.00074433303   -1.1655885   0.14983558   421400 
  488000  0.099888986   -1.1658616   -1.1658616   -1.0160284 0.0022386454   -1.1658616   0.14983312   421400 
  489000    0.1000978   -1.1659931   -1.1659931   -1.0158468 0.0021744189   -1.1659931   0.15014635   421400 
  490000  0.099989658   -1.1662861   -1.1662861    -1.016302 -0.00060295224   -1.1662861   0.14998413   421400 
  491000   0.10022253   -1.1662937   -1.1662937   -1.0159603 0.0017554392   -1.1662937   0.15033344   421400 
  492000   0.10034676   -1.1662401   -1.1662401   -1.0157203 0.0012483401   -1.1662401   0.15051978   421400 
  493000    0.1002579   -1.1661045   -1.1661045    -1.015718   0.00222585   -1.1661045    0.1503865   421400 
  494000  0.099993403   -1.1662084   -1.1662084   -1.0162186 0.00035865017   -1.1662084   0.14998975   421400 
  495000   0.10008137   -1.1661483   -1.1661483   -1.0160266 0.0008804406   -1.1661483    0.1501217   421400 
  496000  0.099982198   -1.1663673   -1.1663673   -1.0163943 0.0018723683   -1.1663673   0.14997294   421400 
  497000   0.10024127   -1.1663901   -1.1663901   -1.0160286 0.0011023269   -1.1663901   0.15036155   421400 
  498000  0.099970617    -1.166541    -1.166541   -1.0165854 0.00073461719    -1.166541   0.14995557   421400 
  499000   0.09993669   -1.1665455   -1.1665455   -1.0166408 0.0017986558   -1.1665455   0.14990468   421400 
  500000  0.099790318   -1.1666122   -1.1666122   -1.0169271 0.0030298992   -1.1666122   0.14968512   421400 
  501000  0.099878499   -1.1667318   -1.1667318   -1.0169144 0.0010602684   -1.1667318   0.14981739   421400 
  502000   0.09992392   -1.1667494   -1.1667494   -1.0168639 0.0023763039   -1.1667494   0.14988552   421400 
  503000  0.099991578   -1.1664324   -1.1664324   -1.0164453 0.0035551931   -1.1664324   0.14998701   421400 
  504000   0.10008616   -1.1665893   -1.1665893   -1.0164604 0.0023132156   -1.1665893   0.15012888   421400 
  505000   0.10024232   -1.1668021   -1.1668021   -1.0164389 0.0016425046   -1.1668021   0.15036312   421400 
  506000   0.10009316   -1.1668116   -1.1668116   -1.0166723 0.0024896123   -1.1668116   0.15013938   421400 
  507000  0.099879161   -1.1667999   -1.1667999   -1.0169816 5.1813312e-05   -1.1667999   0.14981839   421400 
  508000  0.099975101   -1.1670083   -1.1670083    -1.017046 0.00019625565   -1.1670083    0.1499623   421400 
  509000   0.10012814   -1.1671917   -1.1671917   -1.0169998 0.0011740443   -1.1671917   0.15019186   421400 
  510000  0.099940125   -1.1669615   -1.1669615   -1.0170516 0.0011230983   -1.1669615   0.14990983   421400 
  511000   0.09994582   -1.1669927   -1.1669927   -1.0170743 0.0019729576   -1.1669927   0.14991837   421400 
  512000  0.099972175   -1.1669196   -1.1669196   -1.0169617 0.0015419601   -1.1669196   0.14995791   421400 
  513000  0.099921932   -1.1668032   -1.1668032   -1.0169206 0.0011494473   -1.1668032   0.14988254   421400 
  514000   0.10016582   -1.1669341   -1.1669341   -1.0166857 0.0013604483   -1.1669341   0.15024838   421400 
  515000   0.10024831    -1.167369    -1.167369   -1.0169969 0.00037461123    -1.167369   0.15037211   421400 
  516000   0.10013748   -1.1673927   -1.1673927   -1.0171869 0.0024675568   -1.1673927   0.15020586   421400 
  517000   0.10001078   -1.1672283   -1.1672283   -1.0172125 0.0011789701   -1.1672283   0.15001581   421400 
  518000   0.10014948   -1.1673073   -1.1673073   -1.0170834 0.0017092305   -1.1673073   0.15022386   421400 
  519000  0.099935686   -1.1671323   -1.1671323   -1.0172291 0.0025725261   -1.1671323   0.14990317   421400 
  520000   0.10011821   -1.1675349   -1.1675349   -1.0173579  0.001391201   -1.1675349   0.15017696   421400 
  521000  0.099976129   -1.1675086   -1.1675086   -1.0175447 0.00050179604   -1.1675086   0.14996384   421400 
  522000   0.10009535   -1.1673614   -1.1673614   -1.0172187   0.00126887   -1.1673614   0.15014268   421400 
  523000   0.10012812   -1.1677443   -1.1677443   -1.0175525 -0.00042240466   -1.1677443   0.15019182   421400 
  524000   0.10014711   -1.1679188   -1.1679188   -1.0176985 0.00044998827   -1.1679188   0.15022031   421400 
  525000  0.099894223   -1.1678255   -1.1678255   -1.0179846 0.00029565975   -1.1678255   0.14984098   421400 
  526000  0.099990167   -1.1679633   -1.1679633   -1.0179784 0.00021873498   -1.1679633    0.1499849   421400 
  527000  0.099954245   -1.1681016   -1.1681016   -1.0181705 0.0015277333   -1.1681016   0.14993101   421400 
  528000   0.10003865   -1.1684957   -1.1684957   -1.0184381 0.00093802591   -1.1684957   0.15005762   421400 
  529000  0.099907916   -1.1685036   -1.1685036   -1.0186421 0.0020390464   -1.1685036   0.14986152   421400 
  530000  0.099897475   -1.1683649   -1.1683649    -1.018519 0.0025820811   -1.1683649   0.14984586   421400 
  531000  0.099694531   -1.1679461   -1.1679461   -1.0184046 0.00092082416   -1.1679461   0.14954144   421400 
  532000  0.099986013   -1.1684947   -1.1684947    -1.018516 -0.0003368618   -1.1684947   0.14997866   421400 
  533000   0.10000357   -1.1682701   -1.1682701   -1.0182651 0.0014514892   -1.1682701   0.15000501   421400 
  534000  0.099979279   -1.1684451   -1.1684451   -1.0184765 0.0020570041   -1.1684451   0.14996856   421400 
  535000    0.1000911    -1.168475    -1.168475   -1.0183387 0.00081796683    -1.168475   0.15013629   421400 
  536000   0.10008531   -1.1684634   -1.1684634   -1.0183358 0.00055741522   -1.1684634   0.15012761   421400 
  537000  0.099982138   -1.1684464   -1.1684464   -1.0184736 0.0011579485   -1.1684464   0.14997285   421400 
  538000   0.10017886   -1.1685109   -1.1685109    -1.018243 0.0019255787   -1.1685109   0.15026794   421400 
  539000   0.10027966   -1.1687875   -1.1687875   -1.0183684 0.0012530043   -1.1687875   0.15041913   421400 
  540000  0.099897613   -1.1680951   -1.1680951   -1.0182491  0.002396304   -1.1680951   0.14984606   421400 
  541000   0.10010875   -1.1684666   -1.1684666   -1.0183039  0.001536262   -1.1684666   0.15016277   421400 
  542000   0.10002734   -1.1684704   -1.1684704   -1.0184298 0.0016394897   -1.1684704   0.15004066   421400 
  543000   0.10007579   -1.1686974   -1.1686974   -1.0185841 0.0016258507   -1.1686974   0.15011333   421400 
  544000   0.10030909   -1.1687817   -1.1687817   -1.0183184 0.0029226071   -1.1687817   0.15046327   421400 
  545000   0.10006005   -1.1689822   -1.1689822   -1.0188924 0.0016312342   -1.1689822   0.15008971   421400 
  546000  0.099915694   -1.1687509   -1.1687509   -1.0188777 0.0014956439   -1.1687509   0.14987318   421400 
  547000  0.099909897   -1.1691494   -1.1691494    -1.019285 0.0027609815   -1.1691494   0.14986449   421400 
  548000     0.100019   -1.1689791   -1.1689791    -1.018951 0.0020847268   -1.1689791   0.15002814   421400 
  549000   0.10001243   -1.1688368   -1.1688368   -1.0188185 0.0015376732   -1.1688368   0.15001829   421400 
  550000   0.10000613   -1.1694605   -1.1694605   -1.0194517 0.00081350679   -1.1694605   0.15000884   421400 
  551000  0.099722776   -1.1693402   -1.1693402   -1.0197564 0.00053909794   -1.1693402   0.14958381   421400 
  552000   0.10001407   -1.1693816   -1.1693816   -1.0193608 0.0017303431   -1.1693816   0.15002075   421400 
  553000   0.10003517   -1.1693931   -1.1693931   -1.0193407 0.0023122003   -1.1693931   0.15005239   421400 
  554000  0.099979674   -1.1691079   -1.1691079   -1.0191387 0.00037694273   -1.1691079   0.14996916   421400 
  555000   0.10018294   -1.1693524   -1.1693524   -1.0190784 0.0017379898   -1.1693524   0.15027405   421400 
  556000   0.10000477   -1.1691128   -1.1691128    -1.019106 0.0018671505   -1.1691128    0.1500068   421400 
  557000   0.10014609   -1.1689414   -1.1689414   -1.0187227 0.0018636377   -1.1689414   0.15021877   421400 
  558000   0.10022105   -1.1695004   -1.1695004   -1.0191691 0.0028424109   -1.1695004   0.15033122   421400 
  559000   0.10011708   -1.1692722   -1.1692722   -1.0190969 0.0012896433   -1.1692722   0.15017526   421400 
  560000   0.10006918   -1.1693309   -1.1693309   -1.0192275 0.0013029082   -1.1693309   0.15010341   421400 
  561000   0.10016252   -1.1695925   -1.1695925   -1.0193491 0.0015579012   -1.1695925   0.15024342   421400 
  562000   0.10001938   -1.1697327   -1.1697327    -1.019704 0.00053374468   -1.1697327   0.15002871   421400 
  563000  0.099912802   -1.1697086   -1.1697086   -1.0198398 0.0019801537   -1.1697086   0.14986885   421400 
  564000  0.099897792   -1.1695679   -1.1695679   -1.0197216 0.0013133983   -1.1695679   0.14984633   421400 
  565000   0.10014265   -1.1697973   -1.1697973   -1.0195836 0.0016927157   -1.1697973   0.15021362   421400 
  566000   0.10000226   -1.1695634   -1.1695634   -1.0195603 -1.5969397e-05   -1.1695634   0.15000304   421400 
  567000  0.099998393   -1.1698413   -1.1698413   -1.0198441 -9.3006991e-05   -1.1698413   0.14999723   421400 
  568000  0.099865989   -1.1698569   -1.1698569   -1.0200583 -3.0223598e-05   -1.1698569   0.14979863   421400 
  569000   0.10002192   -1.1698326   -1.1698326      -1.0198 -0.00062911753   -1.1698326   0.15003253   421400 
  570000  0.099931274   -1.1699754   -1.1699754   -1.0200789 0.0021399822   -1.1699754   0.14989656   421400 
  571000  0.099869036   -1.1697348   -1.1697348   -1.0199316 0.0017363398   -1.1697348    0.1498032   421400 
  572000   0.10011078   -1.1698537   -1.1698537   -1.0196879 0.00050690546   -1.1698537   0.15016581   421400 
  573000   0.10010174   -1.1698614   -1.1698614   -1.0197091 0.0020612661   -1.1698614   0.15015225   421400 
  574000   0.10009651   -1.1702402   -1.1702402   -1.0200958 -0.0011287271   -1.1702402   0.15014441   421400 
  575000  0.099993962   -1.1701327   -1.1701327   -1.0201421  0.002213701   -1.1701327   0.14999059   421400 
  576000  0.099955122    -1.170072    -1.170072   -1.0201397 0.0015023237    -1.170072   0.14993233   421400 
  577000  0.099987046    -1.170063    -1.170063   -1.0200827 0.0020376937    -1.170063   0.14998021   421400 
  578000   0.10002645   -1.1706116   -1.1706116   -1.0205723 0.0014937761   -1.1706116   0.15003931   421400 
  579000  0.099785075   -1.1702424   -1.1702424   -1.0205651 0.0012773312   -1.1702424   0.14967726   421400 
  580000  0.099874774   -1.1704375   -1.1704375   -1.0206257 0.0019075741   -1.1704375    0.1498118   421400 
  581000   0.10002045   -1.1705759   -1.1705759   -1.0205455  0.001835384   -1.1705759   0.15003033   421400 
  582000  0.099826892   -1.1704108   -1.1704108   -1.0206708 0.0023226188   -1.1704108   0.14973998   421400 
  583000   0.10010742    -1.170912    -1.170912   -1.0207512 0.0016309131    -1.170912   0.15016077   421400 
  584000   0.09989007   -1.1706647   -1.1706647   -1.0208299 0.00052834372   -1.1706647   0.14983475   421400 
  585000  0.099974337   -1.1705591   -1.1705591    -1.020598 0.0021051118   -1.1705591   0.14996115   421400 
  586000  0.099891053   -1.1705517   -1.1705517   -1.0207155 -9.8201404e-05   -1.1705517   0.14983622   421400 
  587000  0.099988367   -1.1706151   -1.1706151   -1.0206329 0.0016200895   -1.1706151   0.14998219   421400 
  588000  0.099959931    -1.170706    -1.170706   -1.0207664 -0.0002758761    -1.170706   0.14993954   421400 
  589000   0.10000129   -1.1704688   -1.1704688   -1.0204673 0.00074996339   -1.1704688   0.15000158   421400 
  590000   0.10014109   -1.1705361   -1.1705361   -1.0203249 0.00047896721   -1.1705361   0.15021128   421400 
  591000   0.10013931   -1.1706184   -1.1706184   -1.0204098 -0.00020813296   -1.1706184    0.1502086   421400 
  592000   0.10013711   -1.1707328   -1.1707328   -1.0205275 -0.00022352535   -1.1707328   0.15020531   421400 
  593000  0.099961255   -1.1708178   -1.1708178   -1.0208763 0.00021714963   -1.1708178   0.14994153   421400 
  594000  0.099753291   -1.1706161   -1.1706161   -1.0209865  0.001099397   -1.1706161   0.14962958   421400 
  595000   0.10008292   -1.1710661   -1.1710661   -1.0209421 2.1024921e-05   -1.1710661   0.15012402   421400 
  596000  0.099959246    -1.170875    -1.170875   -1.0209364 0.0016676652    -1.170875   0.14993851   421400 
  597000    0.1003253    -1.171109    -1.171109   -1.0206214 -5.7403236e-05    -1.171109    0.1504876   421400 
  598000    0.1001151    -1.171055    -1.171055   -1.0208827 0.0019199922    -1.171055    0.1501723   421400 
  599000   0.10007886   -1.1711927   -1.1711927   -1.0210748 0.0017006599   -1.1711927   0.15011794   421400 
  600000   0.10013179   -1.1708866   -1.1708866   -1.0206893 0.0024644265   -1.1708866   0.15019733   421400 
  601000  0.099975298   -1.1707097   -1.1707097   -1.0207471 -0.00028748851   -1.1707097   0.14996259   421400 
  602000    0.1001026   -1.1713211   -1.1713211   -1.0211675 -0.00060609598   -1.1713211   0.15015354   421400 
  603000  0.099832291   -1.1710385   -1.1710385   -1.0212905 0.00063507683   -1.1710385   0.14974808   421400 
  604000  0.099955001   -1.1711347   -1.1711347   -1.0212026 0.0016308842   -1.1711347   0.14993215   421400 
  605000  0.099997545   -1.1709304   -1.1709304   -1.0209344 0.0006412487   -1.1709304   0.14999596   421400 
  606000   0.10014175   -1.1710952   -1.1710952   -1.0208829 0.0019313725   -1.1710952   0.15021227   421400 
  607000   0.10004787   -1.1711367   -1.1711367   -1.0210653 0.00071911837   -1.1711367   0.15007145   421400 
  608000  0.099959817   -1.1707118   -1.1707118   -1.0207724 0.0037074073   -1.1707118   0.14993937   421400 
  609000   0.10011364   -1.1712796   -1.1712796   -1.0211095  0.000970818   -1.1712796   0.15017011   421400 
  610000   0.10005845   -1.1712969   -1.1712969   -1.0212095 0.0018801228   -1.1712969   0.15008732   421400 
  611000   0.10003091   -1.1715946   -1.1715946   -1.0215485 0.0016636766   -1.1715946   0.15004601   421400 
  612000  0.099995068   -1.1711478   -1.1711478   -1.0211555 0.0011109225   -1.1711478   0.14999225   421400 
  613000   0.09997839   -1.1709805   -1.1709805   -1.0210133 0.0023522801   -1.1709805   0.14996723   421400 
  614000   0.10002996   -1.1715346   -1.1715346   -1.0214901 0.0005063672   -1.1715346   0.15004458   421400 
  615000  0.099954702   -1.1719003   -1.1719003   -1.0219686 0.00070538025   -1.1719003    0.1499317   421400 
  616000   0.10001379   -1.1717897   -1.1717897   -1.0217694 0.00071527643   -1.1717897   0.15002033   421400 
  617000   0.10005502   -1.1719107   -1.1719107   -1.0218286 0.0020067328   -1.1719107   0.15008217   421400 
  618000   0.10007628   -1.1717137   -1.1717137   -1.0215997 0.0012844974   -1.1717137   0.15011406   421400 
  619000   0.09999386   -1.1717244   -1.1717244    -1.021734 0.00054161205   -1.1717244   0.14999043   421400 
  620000   0.10006508    -1.172166    -1.172166   -1.0220687 0.0013344267    -1.172166   0.15009727   421400 
  621000   0.10017739   -1.1723123   -1.1723123   -1.0220466 0.0026868264   -1.1723123   0.15026573   421400 
  622000   0.10008678    -1.171976    -1.171976   -1.0218462 0.0027701088    -1.171976   0.15012982   421400 
  623000  0.099881072   -1.1716178   -1.1716178   -1.0217965 0.0023177767   -1.1716178   0.14982125   421400 
  624000  0.099927935   -1.1717008   -1.1717008   -1.0218093  0.003060867   -1.1717008   0.14989155   421400 
  625000   0.10009388   -1.1718867   -1.1718867   -1.0217462  0.002011596   -1.1718867   0.15014046   421400 
  626000  0.099941295   -1.1721849   -1.1721849   -1.0222733 0.0019878412   -1.1721849   0.14991159   421400 
  627000  0.099925343   -1.1723539   -1.1723539   -1.0224663 0.0013852556   -1.1723539   0.14988766   421400 
  628000  0.099844824   -1.1723258   -1.1723258   -1.0225589 0.00027400375   -1.1723258   0.14976688   421400 
  629000   0.10006099   -1.1724915   -1.1724915   -1.0224003 0.0010123643   -1.1724915   0.15009114   421400 
  630000  0.099969244   -1.1722298   -1.1722298   -1.0222763 -7.3483804e-05   -1.1722298   0.14995351   421400 
  631000   0.10012561   -1.1719729   -1.1719729   -1.0217848  0.001605289   -1.1719729   0.15018805   421400 
  632000   0.10007529   -1.1721122   -1.1721122   -1.0219997 0.0017513097   -1.1721122   0.15011257   421400 
  633000   0.10006299   -1.1725234   -1.1725234   -1.0224293 0.00013189178   -1.1725234   0.15009412   421400 
  634000   0.10008419   -1.1727389   -1.1727389    -1.022613 0.0020379287   -1.1727389   0.15012592   421400 
  635000   0.10006553   -1.1726208   -1.1726208   -1.0225229  0.001139885   -1.1726208   0.15009794   421400 
  636000  0.099983966   -1.1727075   -1.1727075   -1.0227319 0.00093302412   -1.1727075   0.14997559   421400 
  637000   0.10003502   -1.1724936   -1.1724936   -1.0224414 0.0016298211   -1.1724936   0.15005217   421400 
  638000  0.099967752   -1.1725696   -1.1725696   -1.0226183 0.00080314239   -1.1725696   0.14995127   421400 
  639000  0.099911217   -1.1724034   -1.1724034   -1.0225369  0.001424081   -1.1724034   0.14986647   421400 
  640000   0.09984778   -1.1724155   -1.1724155   -1.0226442 0.0014399085   -1.1724155   0.14977131   421400 
  641000   0.10013209   -1.1725972   -1.1725972   -1.0223994 0.0010821684   -1.1725972   0.15019778   421400 
  642000   0.10025594    -1.172498    -1.172498   -1.0221144 0.00057591358    -1.172498   0.15038355   421400 
  643000    0.1001148   -1.1727221   -1.1727221   -1.0225503 0.0013038569   -1.1727221   0.15017184   421400 
  644000  0.099853297   -1.1721262   -1.1721262   -1.0223467 0.00023266389   -1.1721262   0.14977959   421400 
  645000   0.10021332   -1.1726052   -1.1726052   -1.0222855 -0.00010308957   -1.1726052   0.15031963   421400 
  646000   0.10023295   -1.1725063   -1.1725063   -1.0221572 0.00041757809   -1.1725063   0.15034906   421400 
  647000   0.10002836   -1.1723157   -1.1723157   -1.0222735 0.0017571773   -1.1723157   0.15004219   421400 
  648000   0.10026689   -1.1723882   -1.1723882   -1.0219882 0.0025106344   -1.1723882   0.15039998   421400 
  649000     0.100236   -1.1725968   -1.1725968   -1.0222432 0.0020662398   -1.1725968   0.15035364   421400 
  650000   0.10010163   -1.1724988   -1.1724988   -1.0223467  0.001395744   -1.1724988   0.15015208   421400 
  651000   0.10004827   -1.1728992   -1.1728992   -1.0228271 0.00097669506   -1.1728992   0.15007205   421400 
  652000  0.099956374   -1.1727048   -1.1727048   -1.0227706 0.0017874118   -1.1727048    0.1499342   421400 
  653000   0.10005084   -1.1731716   -1.1731716   -1.0230957 0.00050911702   -1.1731716   0.15007591   421400 
  654000  0.099976311   -1.1730144   -1.1730144   -1.0230503 0.0017420853   -1.1730144   0.14996411   421400 
  655000   0.10010597   -1.1728315   -1.1728315   -1.0226729 0.0022070039   -1.1728315    0.1501586   421400 
  656000    0.1001521   -1.1728541   -1.1728541   -1.0226263 0.0011181002   -1.1728541   0.15022779   421400 
  657000   0.10003245   -1.1728167   -1.1728167   -1.0227684    0.0018631   -1.1728167   0.15004832   421400 
  658000  0.099907512   -1.1733847   -1.1733847   -1.0235237 -0.00082259608   -1.1733847   0.14986091   421400 
  659000   0.10012305   -1.1735437   -1.1735437   -1.0233595 0.0019846675   -1.1735437   0.15018421   421400 
  660000  0.099983037   -1.1732644   -1.1732644   -1.0232902 0.0031361647   -1.1732644    0.1499742   421400 
  661000   0.10008856   -1.1736883   -1.1736883   -1.0235558 0.0025005445   -1.1736883   0.15013249   421400 
  662000  0.099889309   -1.1733718   -1.1733718   -1.0235382 3.7043077e-05   -1.1733718   0.14983361   421400 
  663000  0.099951929   -1.1733974   -1.1733974   -1.0234699 0.00081043184   -1.1733974   0.14992754   421400 
  664000  0.099862897   -1.1731401   -1.1731401   -1.0233461  0.001941829   -1.1731401   0.14979399   421400 
  665000   0.10003628   -1.1731645   -1.1731645   -1.0231105 -0.00043096476   -1.1731645   0.15005407   421400 
  666000   0.10004338   -1.1729537   -1.1729537    -1.022889 0.0016839992   -1.1729537   0.15006471   421400 
  667000   0.10023963    -1.173235    -1.173235   -1.0228759  0.001644114    -1.173235   0.15035909   421400 
  668000   0.10002421   -1.1729875   -1.1729875   -1.0229515 0.0018229962   -1.1729875   0.15003597   421400 
  669000   0.10005247   -1.1734023   -1.1734023    -1.023324 0.0006012715   -1.1734023   0.15007835   421400 
  670000    0.1001619   -1.1736069   -1.1736069   -1.0233644 0.0012860821   -1.1736069   0.15024249   421400 
  671000   0.10004976   -1.1734706   -1.1734706   -1.0233964 0.00059469884   -1.1734706   0.15007428   421400 
  672000   0.10007074   -1.1735524   -1.1735524   -1.0234467 0.0010547266   -1.1735524   0.15010576   421400 
  673000   0.10017113   -1.1740492   -1.1740492   -1.0237928 0.0016460918   -1.1740492   0.15025633   421400 
  674000   0.10002646   -1.1739931   -1.1739931   -1.0239538 0.0027785483   -1.1739931   0.15003934   421400 
  675000  0.099997393   -1.1736374   -1.1736374   -1.0236417 0.0025902471   -1.1736374   0.14999573   421400 
  676000  0.099925715   -1.1737581   -1.1737581   -1.0238698 -3.1671441e-05   -1.1737581   0.14988822   421400 
  677000  0.099888942   -1.1735758   -1.1735758   -1.0237427 3.1676308e-05   -1.1735758   0.14983306   421400 
  678000   0.10012894   -1.1739703   -1.1739703   -1.0237772 -1.7527179e-05   -1.1739703   0.15019305   421400 
  679000   0.10001478   -1.1736726   -1.1736726   -1.0236508 0.0016175272   -1.1736726   0.15002182   421400 
  680000   0.10004764    -1.173892    -1.173892   -1.0238209 0.0011092156    -1.173892   0.15007111   421400 
  681000   0.10016898   -1.1738005   -1.1738005   -1.0235474 0.0015360807   -1.1738005   0.15025311   421400 
  682000  0.099961939   -1.1739407   -1.1739407   -1.0239981 0.00088596394   -1.1739407   0.14994255   421400 
  683000   0.10002613   -1.1744471   -1.1744471   -1.0244083 0.0026943437   -1.1744471   0.15003884   421400 
  684000  0.099941055   -1.1743154   -1.1743154   -1.0244042 0.00044744255   -1.1743154   0.14991123   421400 
  685000  0.099944834   -1.1742969   -1.1742969     -1.02438 0.0032336718   -1.1742969    0.1499169   421400 
  686000   0.10006047   -1.1743892   -1.1743892   -1.0242989 0.0020739707   -1.1743892   0.15009034   421400 
  687000   0.10016117   -1.1746587   -1.1746587   -1.0244172  0.002872729   -1.1746587    0.1502414   421400 
  688000   0.09992727   -1.1744405   -1.1744405     -1.02455 0.0013711902   -1.1744405   0.14989055   421400 
  689000  0.099812284   -1.1744533   -1.1744533   -1.0247353 0.0014887429   -1.1744533   0.14971807   421400 
  690000   0.10000916   -1.1747384   -1.1747384    -1.024725 0.0022288655   -1.1747384   0.15001339   421400 
  691000   0.10004604   -1.1743437   -1.1743437    -1.024275 0.0021223622   -1.1743437   0.15006871   421400 
  692000   0.10029682   -1.1742357   -1.1742357   -1.0237908 0.0017169717   -1.1742357   0.15044487   421400 
  693000  0.099904471   -1.1738278   -1.1738278   -1.0239715   0.00111564   -1.1738278   0.14985635   421400 
  694000   0.10024804   -1.1744831   -1.1744831   -1.0241114 0.0022364113   -1.1744831    0.1503717   421400 
  695000   0.10008481   -1.1745595   -1.1745595   -1.0244327 0.0019342264   -1.1745595   0.15012686   421400 
  696000   0.10013182   -1.1747444   -1.1747444    -1.024547  0.002036193   -1.1747444   0.15019738   421400 
  697000  0.099994194   -1.1747483   -1.1747483   -1.0247573 0.0031159725   -1.1747483   0.14999094   421400 
  698000  0.099933164   -1.1750124   -1.1750124    -1.025113 0.0021372737   -1.1750124   0.14989939   421400 
  699000  0.099771618   -1.1744843   -1.1744843   -1.0248272 0.0013417446   -1.1744843   0.14965707   421400 
  700000  0.099955975   -1.1746602   -1.1746602   -1.0247266 0.0014863241   -1.1746602   0.14993361   421400 
  701000   0.10024222   -1.1749651   -1.1749651   -1.0246021 0.0019316219   -1.1749651   0.15036297   421400 
  702000   0.10005602   -1.1748273   -1.1748273   -1.0247437 0.0039425051   -1.1748273   0.15008367   421400 
  703000   0.10015311    -1.175047    -1.175047   -1.0248177 0.0021361047    -1.175047   0.15022931   421400 
  704000   0.10007749    -1.175104    -1.175104   -1.0249882 0.0029980154    -1.175104   0.15011587   421400 
  705000  0.099966463    -1.175033    -1.175033   -1.0250837 0.00062940913    -1.175033   0.14994934   421400 
  706000   0.10002631   -1.1751339   -1.1751339   -1.0250948 0.0021882511   -1.1751339   0.15003911   421400 
[...]
 3098000   0.10004749   -1.2085063   -1.2085063   -1.0584354 0.0038817501   -1.2085063   0.15007088   421400 
 3099000   0.10016919   -1.2085187   -1.2085187   -1.0582653 0.0039671375   -1.2085187   0.15025344   421400 
 3100000  0.099825257   -1.2082918   -1.2082918   -1.0585543 0.0041004965   -1.2082918   0.14973753   421400 
 3101000   0.10013427   -1.2088198   -1.2088198   -1.0586188 0.0034667829   -1.2088198   0.15020105   421400 
 3102000   0.09988676   -1.2087555   -1.2087555   -1.0589257 0.0023077937   -1.2087555   0.14982978   421400 
 3103000  0.099828765   -1.2087607   -1.2087607   -1.0590179 0.0038214233   -1.2087607   0.14974279   421400 
 3104000  0.099926186   -1.2087204   -1.2087204   -1.0588315 0.0036874198   -1.2087204   0.14988892   421400 
 3105000   0.10018152   -1.2087906   -1.2087906   -1.0585187 0.0037256563   -1.2087906   0.15027193   421400 
 3106000  0.099643258   -1.2085625   -1.2085625    -1.059098  0.003307885   -1.2085625   0.14946453   421400 
 3107000  0.099830132   -1.2086837   -1.2086837   -1.0589389 0.0042811066   -1.2086837   0.14974484   421400 
 3108000  0.099924202   -1.2088876   -1.2088876   -1.0590017 0.0020010995   -1.2088876   0.14988595   421400 
 3109000  0.099925737   -1.2084673   -1.2084673    -1.058579 0.0033381323   -1.2084673   0.14988825   421400 
 3110000   0.10017343   -1.2087021   -1.2087021   -1.0584424 0.0021051813   -1.2087021   0.15025979   421400 
 3111000  0.099903069   -1.2085833   -1.2085833   -1.0587291 0.0027688634   -1.2085833   0.14985425   421400 
 3112000   0.09990721   -1.2087382   -1.2087382   -1.0588777 0.0028502733   -1.2087382   0.14986046   421400 
 3113000  0.099910689   -1.2086286   -1.2086286   -1.0587629   0.00411709   -1.2086286   0.14986568   421400 
 3114000   0.10007448   -1.2087169   -1.2087169   -1.0586055 0.0036610052   -1.2087169   0.15011136   421400 
 3115000  0.099946589   -1.2084403   -1.2084403   -1.0585208 0.0056971226   -1.2084403   0.14991953   421400 
 3116000   0.10000685   -1.2085786   -1.2085786   -1.0585687 0.0048046432   -1.2085786   0.15000992   421400 
 3117000  0.099945738   -1.2083872   -1.2083872    -1.058469 0.0037399502   -1.2083872   0.14991825   421400 
 3118000  0.099981679   -1.2085335   -1.2085335   -1.0585614 0.0021325784   -1.2085335   0.14997216   421400 
 3119000  0.099902429   -1.2083562   -1.2083562   -1.0585029  0.001737273   -1.2083562   0.14985329   421400 
 3120000   0.10014933   -1.2082495   -1.2082495   -1.0580258 0.0038497809   -1.2082495   0.15022365   421400 
 3121000   0.10013107   -1.2083235   -1.2083235   -1.0581273 0.0028228717   -1.2083235   0.15019624   421400 
 3122000   0.10022635   -1.2084332   -1.2084332   -1.0580941 0.0011027346   -1.2084332   0.15033916   421400 
 3123000  0.099955139   -1.2082597   -1.2082597   -1.0583273 0.0038296068   -1.2082597   0.14993235   421400 
 3124000   0.10020992   -1.2083781   -1.2083781   -1.0580635 0.0016518404   -1.2083781   0.15031452   421400 
 3125000   0.10002876   -1.2084267   -1.2084267    -1.058384 0.0030779868   -1.2084267   0.15004278   421400 
 3126000  0.099972979   -1.2081798   -1.2081798   -1.0582207 0.0029430118   -1.2081798   0.14995911   421400 
 3127000    0.1000833   -1.2081122   -1.2081122   -1.0579876 0.0026407903   -1.2081122    0.1501246   421400 
 3128000    0.1001373   -1.2083203   -1.2083203   -1.0581147 0.0022918262   -1.2083203    0.1502056   421400 
 3129000   0.10006108   -1.2084454   -1.2084454   -1.0583541 0.0045478997   -1.2084454   0.15009127   421400 
 3130000   0.10001072    -1.208603    -1.208603   -1.0585872 0.0039791166    -1.208603   0.15001572   421400 
 3131000  0.099891858   -1.2082441   -1.2082441   -1.0584067 0.0031625821   -1.2082441   0.14983743   421400 
 3132000   0.10010959   -1.2086235   -1.2086235   -1.0584595 0.0025618543   -1.2086235   0.15016403   421400 
 3133000   0.10002751   -1.2083215   -1.2083215   -1.0582806 0.0028915731   -1.2083215   0.15004092   421400 
 3134000  0.099922193   -1.2086363   -1.2086363   -1.0587534 0.0049143905   -1.2086363   0.14988293   421400 
 3135000  0.099783781   -1.2087503   -1.2087503    -1.059075 0.0044436287   -1.2087503   0.14967532   421400 
 3136000  0.099910015      -1.2089      -1.2089   -1.0590354 0.0047962575      -1.2089   0.14986467   421400 
 3137000  0.099907096   -1.2085362   -1.2085362   -1.0586759  0.002552912   -1.2085362   0.14986029   421400 
 3138000  0.099913323    -1.208688    -1.208688   -1.0588184 0.0032682978    -1.208688   0.14986963   421400 
 3139000   0.10011516   -1.2088594   -1.2088594   -1.0586871 0.0025785521   -1.2088594   0.15017239   421400 
 3140000  0.099938234    -1.208689    -1.208689    -1.058782 0.0021456809    -1.208689     0.149907   421400 
 3141000   0.10009535   -1.2087901   -1.2087901   -1.0586475 0.0036925215   -1.2087901   0.15014267   421400 
 3142000   0.10003186   -1.2086859   -1.2086859   -1.0586384 0.0036040973   -1.2086859   0.15004743   421400 
 3143000  0.099901817   -1.2081182   -1.2081182   -1.0582659 0.0025821665   -1.2081182   0.14985237   421400 
 3144000    0.1000919   -1.2086012   -1.2086012   -1.0584637 0.0029236529   -1.2086012   0.15013749   421400 
 3145000   0.10012748    -1.208727    -1.208727   -1.0585361 0.0021849159    -1.208727   0.15019087   421400 
 3146000  0.099860637   -1.2085601   -1.2085601   -1.0587695 0.0018251462   -1.2085601    0.1497906   421400 
 3147000  0.099968451   -1.2086613   -1.2086613   -1.0587089 0.0033174565   -1.2086613   0.14995232   421400 
 3148000  0.099874582   -1.2085297   -1.2085297   -1.0587182 0.0036876414   -1.2085297   0.14981152   421400 
 3149000  0.099994833   -1.2088725   -1.2088725   -1.0588806  0.002974915   -1.2088725   0.14999189   421400 
 3150000  0.099931728   -1.2089326   -1.2089326   -1.0590354 0.0021140792   -1.2089326   0.14989724   421400 
 3151000   0.10009773    -1.208948    -1.208948   -1.0588018 0.0021849969    -1.208948   0.15014623   421400 
 3152000  0.099910891   -1.2086208   -1.2086208   -1.0587549 0.0034992352   -1.2086208   0.14986598   421400 
 3153000  0.099990232   -1.2086928   -1.2086928   -1.0587078 0.0025126153   -1.2086928   0.14998499   421400 
 3154000  0.099978954   -1.2084476   -1.2084476   -1.0584796 0.0018164495   -1.2084476   0.14996807   421400 
 3155000    0.1001461   -1.2086652   -1.2086652   -1.0584464 0.0025440126   -1.2086652    0.1502188   421400 
 3156000   0.10014488    -1.208584    -1.208584    -1.058367 0.0038535891    -1.208584   0.15021696   421400 
 3157000   0.10018886   -1.2084511   -1.2084511   -1.0581682 0.0038683687   -1.2084511   0.15028293   421400 
 3158000   0.10011941   -1.2085235   -1.2085235   -1.0583447  0.003589801   -1.2085235   0.15017876   421400 
 3159000   0.10014093   -1.2088112   -1.2088112   -1.0586002 0.0021856326   -1.2088112   0.15021104   421400 
 3160000   0.10007294   -1.2089615   -1.2089615   -1.0588525 0.0019937391   -1.2089615   0.15010905   421400 
 3161000   0.10002071   -1.2089353   -1.2089353   -1.0589046 0.0014046929   -1.2089353   0.15003071   421400 
 3162000   0.10016194   -1.2088336   -1.2088336    -1.058591 0.0021057694   -1.2088336   0.15024256   421400 
 3163000  0.099883944   -1.2088941   -1.2088941   -1.0590686 0.0030081418   -1.2088941   0.14982556   421400 
 3164000  0.099916823   -1.2088798   -1.2088798   -1.0590049 0.0011796951   -1.2088798   0.14987488   421400 
 3165000   0.10002058   -1.2087044   -1.2087044   -1.0586738 0.0035408246   -1.2087044   0.15003052   421400 
 3166000   0.10001536   -1.2086014   -1.2086014   -1.0585787  0.003110178   -1.2086014   0.15002268   421400 
 3167000   0.10002867   -1.2089676   -1.2089676   -1.0589249 0.0040284167   -1.2089676   0.15004265   421400 
 3168000  0.099928153   -1.2091944   -1.2091944   -1.0593025 0.0044440316   -1.2091944   0.14989187   421400 
 3169000   0.10011345   -1.2094388   -1.2094388    -1.059269 0.0031128367   -1.2094388   0.15016982   421400 
 3170000   0.10000661    -1.209064    -1.209064   -1.0590544  0.004851388    -1.209064   0.15000956   421400 
 3171000   0.09990247   -1.2090223   -1.2090223   -1.0591689 0.0028202177   -1.2090223   0.14985335   421400 
 3172000   0.10016617   -1.2093199   -1.2093199    -1.059071 0.0027218356   -1.2093199    0.1502489   421400 
 3173000   0.10007668   -1.2089164   -1.2089164   -1.0588017 0.0022506221   -1.2089164   0.15011467   421400 
 3174000  0.099935194   -1.2088741   -1.2088741   -1.0589717 0.0024813335   -1.2088741   0.14990244   421400 
 3175000  0.099934071    -1.208761    -1.208761   -1.0588603 0.0041467528    -1.208761   0.14990075   421400 
 3176000  0.099969944   -1.2087277   -1.2087277   -1.0587732 0.0026080685   -1.2087277   0.14995456   421400 
 3177000   0.10023614   -1.2089269   -1.2089269    -1.058573 0.0027133567   -1.2089269   0.15035386   421400 
 3178000  0.099980675   -1.2089679   -1.2089679   -1.0589973 0.0018854438   -1.2089679   0.14997066   421400 
 3179000   0.10008577    -1.208735    -1.208735   -1.0586068 0.0042195823    -1.208735   0.15012829   421400 
 3180000   0.10008645   -1.2088238   -1.2088238   -1.0586945 0.0029556914   -1.2088238   0.15012932   421400 
 3181000  0.099986068   -1.2091155   -1.2091155   -1.0591368 0.0040600998   -1.2091155   0.14997875   421400 
 3182000  0.099755623   -1.2088905   -1.2088905   -1.0592574 0.0012790123   -1.2088905   0.14963308   421400 
 3183000   0.09996119   -1.2089814   -1.2089814   -1.0590399 0.0035719718   -1.2089814   0.14994143   421400 
 3184000  0.099936956   -1.2086608   -1.2086608   -1.0587558 0.0024443888   -1.2086608   0.14990508   421400 
 3185000   0.09999515    -1.209049    -1.209049   -1.0590566  0.001948794    -1.209049   0.14999237   421400 
 3186000   0.10000959   -1.2088309   -1.2088309   -1.0588168 0.0024077102   -1.2088309   0.15001403   421400 
 3187000  0.099897215    -1.208871    -1.208871   -1.0590256 0.0028612062    -1.208871   0.14984547   421400 
 3188000  0.099833716   -1.2088219   -1.2088219   -1.0590716 0.0027462803   -1.2088219   0.14975022   421400 
 3189000   0.10000535   -1.2091823   -1.2091823   -1.0591746 0.0028803731   -1.2091823   0.15000768   421400 
 3190000  0.099841897   -1.2088402   -1.2088402   -1.0590777 0.0024110188   -1.2088402   0.14976249   421400 
 3191000    0.1000238   -1.2087217   -1.2087217   -1.0586863 0.0039335279   -1.2087217   0.15003535   421400 
 3192000   0.10014752   -1.2089272   -1.2089272   -1.0587062 0.0028044061   -1.2089272   0.15022093   421400 
 3193000  0.099931868   -1.2086526   -1.2086526   -1.0587551  0.003861724   -1.2086526   0.14989745   421400 
 3194000  0.099973055   -1.2088772   -1.2088772    -1.058918 0.0016743328   -1.2088772   0.14995923   421400 
 3195000   0.10005389   -1.2087892   -1.2087892   -1.0587087 0.0026454985   -1.2087892   0.15008047   421400 
 3196000  0.099964453   -1.2087008   -1.2087008   -1.0587545 0.0015809916   -1.2087008   0.14994632   421400 
 3197000   0.10004946   -1.2089964   -1.2089964   -1.0589226 0.0042153752   -1.2089964   0.15007384   421400 
 3198000   0.10012782   -1.2091016   -1.2091016   -1.0589102 0.0044933035   -1.2091016   0.15019137   421400 
 3199000    0.1001235   -1.2090345   -1.2090345   -1.0588496 0.0024801018   -1.2090345   0.15018489   421400 
 3200000   0.10008745   -1.2090079   -1.2090079   -1.0588771 0.0033639494   -1.2090079   0.15013082   421400 
 3201000    0.1000979   -1.2091408   -1.2091408   -1.0589943 0.0032646121   -1.2091408   0.15014649   421400 
 3202000  0.099958175   -1.2089633   -1.2089633   -1.0590264 0.0032625837   -1.2089633   0.14993691   421400 
 3203000   0.10013875   -1.2092047   -1.2092047    -1.058997 0.0035528227   -1.2092047   0.15020776   421400 
 3204000   0.09996583   -1.2089235   -1.2089235   -1.0589751 0.0037823365   -1.2089235   0.14994839   421400 
 3205000   0.10012596   -1.2089551   -1.2089551   -1.0587665 0.0035906785   -1.2089551   0.15018859   421400 
 3206000   0.10007481   -1.2089883   -1.2089883   -1.0588765  0.003572754   -1.2089883   0.15011186   421400 
 3207000   0.10014343   -1.2088896   -1.2088896   -1.0586749 0.0040080133   -1.2088896   0.15021478   421400 
 3208000   0.10013012   -1.2089664   -1.2089664   -1.0587715 0.0033822192   -1.2089664   0.15019483   421400 
 3209000  0.099991278    -1.208761    -1.208761   -1.0587744 0.0045334016    -1.208761   0.14998656   421400 
 3210000  0.099969953   -1.2089056   -1.2089056    -1.058951 0.0041839728   -1.2089056   0.14995457   421400 
 3211000   0.10011451   -1.2091462   -1.2091462   -1.0589748 0.0041610893   -1.2091462   0.15017141   421400 
 3212000   0.09984496   -1.2092736   -1.2092736   -1.0595066 0.0044081021   -1.2092736   0.14976708   421400 
 3213000    0.1000547   -1.2093764   -1.2093764   -1.0592947  0.001992967   -1.2093764   0.15008169   421400 
 3214000   0.10006572   -1.2092312   -1.2092312    -1.059133 0.0018962854   -1.2092312   0.15009822   421400 
 3215000   0.10002186   -1.2089191   -1.2089191   -1.0588867 0.0032570674   -1.2089191   0.15003244   421400 
 3216000  0.099869623   -1.2092275   -1.2092275   -1.0594235 0.0036434653   -1.2092275   0.14980408   421400 
 3217000  0.099876154    -1.209426    -1.209426   -1.0596121 0.0024022234    -1.209426   0.14981388   421400 
 3218000  0.099858682   -1.2094005   -1.2094005   -1.0596129 0.0034305907   -1.2094005   0.14978767   421400 
 3219000   0.09996517   -1.2094875   -1.2094875   -1.0595401  0.005129016   -1.2094875    0.1499474   421400 
 3220000  0.099988924   -1.2093446   -1.2093446   -1.0593616 0.0050382675   -1.2093446   0.14998303   421400 
 3221000   0.09998164   -1.2092699   -1.2092699   -1.0592978 0.0038924428   -1.2092699    0.1499721   421400 
 3222000  0.099968491   -1.2092612   -1.2092612   -1.0593088 0.0019389206   -1.2092612   0.14995238   421400 
 3223000   0.10006976   -1.2092824   -1.2092824   -1.0591782 0.0018319475   -1.2092824   0.15010429   421400 
 3224000  0.099993139   -1.2090246   -1.2090246   -1.0590352 0.0038882412   -1.2090246   0.14998935   421400 
 3225000  0.099994928   -1.2090414   -1.2090414   -1.0590494 0.0023101998   -1.2090414   0.14999204   421400 
 3226000  0.099950429   -1.2089601   -1.2089601   -1.0590348 0.0020596351   -1.2089601   0.14992529   421400 
 3227000  0.099871723   -1.2090261   -1.2090261   -1.0592188 0.0029148256   -1.2090261   0.14980723   421400 
 3228000   0.10015766    -1.209503    -1.209503   -1.0592669 0.0015690147    -1.209503   0.15023613   421400 
 3229000   0.10020716   -1.2094065   -1.2094065   -1.0590961 0.0021872902   -1.2094065   0.15031039   421400 
 3230000   0.09992327   -1.2088911   -1.2088911   -1.0590065 0.0025185697   -1.2088911   0.14988455   421400 
 3231000  0.099974766   -1.2091192   -1.2091192   -1.0591574 0.0011301403   -1.2091192   0.14996179   421400 
 3232000  0.099697088   -1.2089513   -1.2089513   -1.0594061 0.0041698958   -1.2089513   0.14954528   421400 
 3233000   0.10006126   -1.2091301   -1.2091301   -1.0590385 0.0029768889   -1.2091301   0.15009154   421400 
 3234000   0.10010009   -1.2093458   -1.2093458   -1.0591961 0.0028517255   -1.2093458   0.15014978   421400 
 3235000   0.10005194   -1.2092627   -1.2092627   -1.0591852 0.0035639188   -1.2092627   0.15007755   421400 
 3236000   0.10001621   -1.2094304   -1.2094304   -1.0594064 0.0026778272   -1.2094304   0.15002396   421400 
 3237000  0.099938302   -1.2094645   -1.2094645   -1.0595574 0.0043793568   -1.2094645    0.1499071   421400 
 3238000  0.099795756   -1.2095301   -1.2095301   -1.0598368 0.0024711095   -1.2095301   0.14969328   421400 
 3239000   0.10009856   -1.2094879   -1.2094879   -1.0593404 0.0033946648   -1.2094879   0.15014749   421400 
 3240000    0.1000863   -1.2094443   -1.2094443   -1.0593152 0.0048772556   -1.2094443    0.1501291   421400 
 3241000   0.10004916   -1.2096402   -1.2096402   -1.0595668 0.0029665742   -1.2096402   0.15007339   421400 
 3242000  0.099876815   -1.2094774   -1.2094774   -1.0596626 0.0042816997   -1.2094774   0.14981487   421400 
 3243000  0.099885072   -1.2096368   -1.2096368   -1.0598095 0.0021212828   -1.2096368   0.14982725   421400 
 3244000  0.099895125   -1.2096278   -1.2096278   -1.0597854 0.0015226709   -1.2096278   0.14984233   421400 
 3245000   0.09976355   -1.2095198   -1.2095198   -1.0598749 0.0011627617   -1.2095198   0.14964497   421400 
 3246000  0.099678829   -1.2095622   -1.2095622   -1.0600444 0.0044238463   -1.2095622   0.14951789   421400 
 3247000  0.099842773   -1.2099228   -1.2099228    -1.060159 0.0031468408   -1.2099228    0.1497638   421400 
 3248000  0.099760005   -1.2099957   -1.2099957   -1.0603561 0.0028028247   -1.2099957   0.14963965   421400 
 3249000  0.099913238   -1.2095735   -1.2095735    -1.059704 0.0030052624   -1.2095735    0.1498695   421400 
 3250000  0.099960544   -1.2095318   -1.2095318   -1.0595913 0.0013616392   -1.2095318   0.14994046   421400 
 3251000  0.099983083   -1.2096079   -1.2096079   -1.0596336 0.0045282621   -1.2096079   0.14997427   421400 
 3252000  0.099944201   -1.2095101   -1.2095101   -1.0595942  0.002697271   -1.2095101   0.14991595   421400 
 3253000  0.099983668   -1.2091754   -1.2091754   -1.0592002 0.0025803321   -1.2091754   0.14997515   421400 
 3254000   0.10009785   -1.2092102   -1.2092102   -1.0590638 0.0016367782   -1.2092102   0.15014641   421400 
 3255000   0.10013679   -1.2094869   -1.2094869   -1.0592821 0.0026895475   -1.2094869   0.15020483   421400 
 3256000  0.099897753    -1.209147    -1.209147   -1.0593007  0.003608593    -1.209147   0.14984627   421400 
 3257000   0.10023949   -1.2097269   -1.2097269    -1.059368 0.0032110705   -1.2097269   0.15035888   421400 
 3258000  0.099987438   -1.2092786   -1.2092786   -1.0592978 0.0042772411   -1.2092786    0.1499808   421400 
 3259000   0.10017246   -1.2094785   -1.2094785   -1.0592201 0.0043777921   -1.2094785   0.15025834   421400 
 3260000   0.10015577   -1.2094985   -1.2094985   -1.0592652 0.0038693088   -1.2094985    0.1502333   421400 
 3261000  0.099930954   -1.2092945   -1.2092945   -1.0593984 0.0012440946   -1.2092945   0.14989608   421400 
 3262000  0.099975662   -1.2094044   -1.2094044   -1.0594412 0.0022787216   -1.2094044   0.14996314   421400 
 3263000  0.099936583   -1.2096957   -1.2096957   -1.0597912 0.0025967395   -1.2096957   0.14990452   421400 
 3264000   0.10006195   -1.2098812   -1.2098812   -1.0597887 0.0026535043   -1.2098812   0.15009257   421400 
 3265000   0.10002433   -1.2095445   -1.2095445   -1.0595084 0.0022817683   -1.2095445   0.15003614   421400 
 3266000  0.099869875   -1.2092994   -1.2092994   -1.0594949 0.0011911912   -1.2092994   0.14980446   421400 
 3267000    0.1002027   -1.2098978   -1.2098978   -1.0595942  0.002346569   -1.2098978   0.15030369   421400 
 3268000   0.10002698   -1.2096598   -1.2096598   -1.0596197 0.0015869814   -1.2096598   0.15004011   421400 
 3269000   0.10002285   -1.2094892   -1.2094892   -1.0594553 0.0018107667   -1.2094892   0.15003391   421400 
 3270000  0.099906137   -1.2092217   -1.2092217   -1.0593628 0.0029609975   -1.2092217   0.14985885   421400 
 3271000   0.10031595   -1.2095613   -1.2095613   -1.0590877 0.0026441325   -1.2095613   0.15047358   421400 
 3272000   0.10000752   -1.2096023   -1.2096023   -1.0595914 0.00015565419   -1.2096023   0.15001092   421400 
 3273000   0.10009578   -1.2097919   -1.2097919   -1.0596486   0.00318042   -1.2097919   0.15014332   421400 
 3274000  0.099954521   -1.2098858   -1.2098858   -1.0599544  0.002399622   -1.2098858   0.14993143   421400 
 3275000  0.099855934   -1.2096455   -1.2096455   -1.0598619 0.0037880281   -1.2096455   0.14978355   421400 
 3276000  0.099985776   -1.2101597   -1.2101597   -1.0601814 0.0014363946   -1.2101597   0.14997831   421400 
 3277000  0.099764369   -1.2097009   -1.2097009   -1.0600547 0.0029322308   -1.2097009    0.1496462   421400 
 3278000  0.099850849   -1.2096507   -1.2096507   -1.0598747 0.0038493061   -1.2096507   0.14977592   421400 
