LAMMPS (24 Dec 2020)
OMP_NUM_THREADS environment is not set. Defaulting to 1 thread. (src/comm.cpp:94)
  using 1 OpenMP thread(s) per MPI task
#Read the equilibrated lj fluid and add nanocubes

units           lj
atom_style      full
atom_modify     map array first cubes
dimension       3
boundary        p p f
pair_style      lj/cut/opt 2.5

variable        sigma           equal 1.0
variable        epsilon         equal 1.0
read_restart	restart.dat.3000000
Reading restart file ...
  restart file = 24 Dec 2020, LAMMPS = 24 Dec 2020
WARNING: Restart file used different # of processors: 48 vs. 288 (src/read_restart.cpp:697)
  restoring atom style full from restart
  orthogonal box = (0.0000000 0.0000000 0.0000000) to (80.000000 80.000000 160.00000)
  6 by 4 by 12 MPI processor grid
  restoring pair style lj/cut/opt from restart
  518400 atoms
Finding 1-2 1-3 1-4 neighbors ...
  special bond factors lj:    0        0        0       
  special bond factors coul:  0        0        0       
     0 = max # of 1-2 neighbors
     0 = max # of 1-3 neighbors
     0 = max # of 1-4 neighbors
     1 = max # of special neighbors
  special bonds CPU = 2.344 seconds
  read_restart CPU = 2.685 seconds

group		solvent type 1
518400 atoms in group solvent

read_data	data_125.cubes group cubes add append
Reading data file ...
  orthogonal box = (0.0000000 0.0000000 0.0000000) to (80.000000 80.000000 160.00000)
  6 by 4 by 12 MPI processor grid
  reading atoms ...
  142875 atoms
  reading velocities ...
  142875 velocities
Finding 1-2 1-3 1-4 neighbors ...
  special bond factors lj:    0        0        0       
  special bond factors coul:  0        0        0       
     0 = max # of 1-2 neighbors
     0 = max # of 1-3 neighbors
     0 = max # of 1-4 neighbors
     1 = max # of special neighbors
  special bonds CPU = 0.050 seconds
  read_data CPU = 0.390 seconds

group 		hull  type 2
55750 atoms in group hull
group 		dummy type 3
87125 atoms in group dummy

neighbor      0.4 bin
neigh_modify  exclude molecule/intra cubes


pair_modify   shift yes

pair_coeff    1 1 1.0 1.0 #solvent
pair_coeff    2 2 1.0 1.0 1.12 #np
pair_coeff    3 3 0.0 0.0 0.0 #dummy
pair_coeff    2 3 0.0 0.0 0.0 #np dummy
pair_coeff    1 2 ${eps} ${sig} ${nscut} #np solvent
pair_coeff    1 2 2.0 ${sig} ${nscut} 
pair_coeff    1 2 2.0 1.0 ${nscut} 
pair_coeff    1 2 2.0 1.0 4.0 
pair_coeff    1 3 0.0 0.0 2.5 #dummy solvent

# delete solvent where the cubes are
delete_atoms  overlap 1.0 solvent cubes
System init for delete_atoms ...
Neighbor list info ...
  update every 1 steps, delay 10 steps, check yes
  max neighbors/atom: 2000, page size: 100000
  master list distance cutoff = 4.4
  ghost atom cutoff = 4.4
  binsize = 2.2, bins = 37 37 73
  2 neighbor lists, perpetual/occasional/extra = 1 1 0
  (1) command delete_atoms, occasional
      attributes: full, newton on
      pair build: full/bin
      stencil: full/bin/3d
      bin: standard
  (2) pair lj/cut/opt, perpetual
      attributes: half, newton on
      pair build: half/bin/newton
      stencil: half/bin/3d/newton
      bin: standard
WARNING: Delete_atoms cutoff > minimum neighbor cutoff (src/delete_atoms.cpp:307)
WARNING: Ignoring 'compress yes' for molecular system (src/delete_atoms.cpp:125)
Deleted 91914 atoms, new total = 569361



pair_coeff    1 1 1.0 1.0 #solvent
pair_coeff    2 2 1.0 1.0 1.12 #np
pair_coeff    3 3 0.0 0.0 0.0 #dummy
pair_coeff    2 3 0.0 0.0 0.0 #np dummy
pair_coeff    1 2 ${eps} ${sig} ${nscut} #np solvent
pair_coeff    1 2 2.0 ${sig} ${nscut} 
pair_coeff    1 2 2.0 1.0 ${nscut} 
pair_coeff    1 2 2.0 1.0 4.0 
pair_coeff    1 3 0.0 0.0 0.0 #dummy solvent


comm_modify   mode multi cutoff/multi 1 2.5 cutoff/multi 2 2.5 cutoff/multi 3 6.95

reset_timestep 	0

balance 	1.05 shift z 10 1.05
Balancing ...
Neighbor list info ...
  update every 1 steps, delay 10 steps, check yes
  max neighbors/atom: 2000, page size: 100000
  master list distance cutoff = 4.4
  ghost atom cutoff = 6.95
  binsize = 2.2, bins = 37 37 73
  1 neighbor lists, perpetual/occasional/extra = 1 0 0
  (1) pair lj/cut/opt, perpetual
      attributes: half, newton on
      pair build: half/bin/newton
      stencil: half/bin/3d/newton
      bin: standard
 rebalancing time: 0.003 seconds
  iteration count = 4
  initial/final maximal load/proc = 2584.0000 2731.0000
  initial/final imbalance factor  = 1.3070653 1.3814223
  x cuts: 0.0000000 0.16666667 0.33333333 0.50000000 0.66666667 0.83333333 1.0000000
  y cuts: 0.0000000 0.25000000 0.50000000 0.75000000 1.0000000
  z cuts: 0.0000000 0.078125000 0.16145833 0.24479167 0.33854167 0.41145833 0.48437500 0.54687500 0.61979167 0.70312500 0.77604167 0.85937500 1.0000000

####################### WALLS ###########################

variable       epsilonWall equal 2*${epsilon}
variable       epsilonWall equal 2*1
variable       repulsive   equal   0.7147*${sigma}
variable       repulsive   equal   0.7147*1
variable       full	   equal   3*${sigma}
variable       full	   equal   3*1
region         lowWall block EDGE EDGE EDGE EDGE EDGE 2

fix            topWall all wall/lj93 zhi EDGE 	       ${epsilonWall} ${sigma} ${repulsive} units box
fix            topWall all wall/lj93 zhi EDGE 	       2 ${sigma} ${repulsive} units box
fix            topWall all wall/lj93 zhi EDGE 	       2 1 ${repulsive} units box
fix            topWall all wall/lj93 zhi EDGE 	       2 1 0.7147 units box
fix            lowSol solvent wall/lj93 zlo EDGE                ${epsilonWall} ${sigma} ${full} units box
fix            lowSol solvent wall/lj93 zlo EDGE                2 ${sigma} ${full} units box
fix            lowSol solvent wall/lj93 zlo EDGE                2 1 ${full} units box
fix            lowSol solvent wall/lj93 zlo EDGE                2 1 3 units box
fix 	       lowCub cubes wall/lj93 zlo EDGE                ${epsilonWall} ${sigma} ${repulsive} units box
fix 	       lowCub cubes wall/lj93 zlo EDGE                2 ${sigma} ${repulsive} units box
fix 	       lowCub cubes wall/lj93 zlo EDGE                2 1 ${repulsive} units box
fix 	       lowCub cubes wall/lj93 zlo EDGE                2 1 0.7147 units box


###################### COMPUTES ##########################

compute        bin1 solvent chunk/atom bin/1d z lower 1.0 units box


######################  FIXES ############################


fix             peclet solvent ave/chunk 10 10 10000 bin1 density/number norm                  none ave one file density.profile

fix              temp solvent ave/chunk 10 10 10000 bin1 temp norm                  none ave one file temp.profile

fix             1 cubes rigid/nve/small molecule
  create bodies CPU = 0.001 seconds
  125 rigid bodies with 142875 atoms
  6.9282032 = max distance from body owner to body atom

fix             2 solvent nve# temp ${temp} ${temp} 10


## Thermostat
region          regthermo block EDGE EDGE EDGE EDGE 0 15
group           thermo dynamic solvent region regthermo every 1000
dynamic group thermo defined
fix             3 thermo langevin ${temp} ${temp} 10 156453
fix             3 thermo langevin 1.0 ${temp} 10 156453
fix             3 thermo langevin 1.0 1.0 10 156453


#### Load balancing

fix             bal all balance 1000 1.05 shift z 10 1.05

############### Diagnostics and computes ###################

compute        	com cubes          rigid/local   1 mol x y z
compute        	quat cubes         rigid/local   1 mol quatw quati quatj quatk

compute 	cc2 cubes 	   chunk/atom 	 molecule
compute 	msd cubes 	   msd/chunk 	 cc2

fix 		msd all ave/time  1 1 10000 c_msd[*] file dump.msd ave one mode vector

dump            1 all custom 500000 dump.lammpstrj id mol type x y z
dump		cubetrj hull custom 500000 cubes.lammpstrj id mol type x y z
dump            com cubes local 10000 dump.*.xyz c_com[*]
dump	        xyz hull xyz 100000 cubes.xyz
dump            quat cubes      local 10000 dump.*.quat c_quat[*]
#dump		mol cubes molfile 10000 mol.xyz xyz


dump            2 all image 10000 image.*.png type type
dump_modify     2 pad 8
dump		image cubes image 10000 image_cubes.*.png type type
dump_modify	image pad 8
dump            3 all movie 5000 movie.avi type type
dump		4 cubes movie 5000 movie_cubes.avi type type


thermo          1000
thermo_style    custom step temp epair evdwl etotal press pe ke atoms

restart         1000000 restart.dat
timestep        0.005
timer           full
New timer settings: style=full  mode=nosync  timeout=off

run 		4000000
Per MPI rank memory allocation (min/avg/max) = 15.75 | 20.55 | 24.00 Mbytes
Step Temp E_pair E_vdwl TotEng Press PotEng KinEng Atoms 
       0   0.99247058   -2.6934326   -2.6934326   -1.5776504  -0.51051248   -2.6934326    1.1157823   569361 
    1000    1.1595369   -2.8954204   -2.8954204   -1.5918144   0.15263988   -2.8954204    1.3036061   569361 
    2000    1.1764025   -2.9288749   -2.9288749   -1.6063076   0.20013199   -2.9288749    1.3225672   569361 
    3000    1.1801764   -2.9466152   -2.9466152   -1.6198053   0.19334839   -2.9466152      1.32681   569361 
    4000    1.1812168   -2.9593645   -2.9593645   -1.6313848    0.1815489   -2.9593645    1.3279797   569361 
    5000    1.1762901   -2.9660767   -2.9660767   -1.6436358   0.18045782   -2.9660767    1.3224409   569361 
    6000     1.167232   -2.9654764   -2.9654764   -1.6532191   0.18057872   -2.9654764    1.3122573   569361 
    7000    1.1580128   -2.9673039   -2.9673039   -1.6654113   0.15153443   -2.9673039    1.3018926   569361 
    8000    1.1508442   -2.9706409   -2.9706409   -1.6768075    0.1475786   -2.9706409    1.2938334   569361 
    9000    1.1473032   -2.9770949   -2.9770949   -1.6872425   0.14574132   -2.9770949    1.2898524   569361 
   10000    1.1432806    -2.981686    -2.981686    -1.696356   0.15732577    -2.981686      1.28533   569361 
   11000    1.1417694    -2.987581    -2.987581     -1.70395   0.15427473    -2.987581     1.283631   569361 
   12000    1.1394037   -2.9911706   -2.9911706   -1.7101992   0.14964468   -2.9911706    1.2809714   569361 
   13000    1.1400241   -2.9970254   -2.9970254   -1.7153565   0.14690474   -2.9970254    1.2816688   569361 
   14000    1.1418368   -3.0045564   -3.0045564   -1.7208496   0.15441634   -3.0045564    1.2837068   569361 
   15000     1.143449   -3.0108398   -3.0108398   -1.7253205   0.17033346   -3.0108398    1.2855193   569361 
   16000     1.147224   -3.0190906   -3.0190906   -1.7293272   0.18031358   -3.0190906    1.2897634   569361 
   17000     1.149945   -3.0245927   -3.0245927   -1.7317703   0.16917841   -3.0245927    1.2928224   569361 
   18000    1.1520794   -3.0301712   -3.0301712   -1.7349491    0.1850809   -3.0301712    1.2952221   569361 
   19000    1.1518473    -3.032582    -3.032582   -1.7376209   0.19505155    -3.032582    1.2949611   569361 
   20000     1.153344   -3.0373991   -3.0373991   -1.7407554    0.1932875   -3.0373991    1.2966437   569361 
   21000    1.1517511   -3.0381779   -3.0381779   -1.7433249   0.18189145   -3.0381779     1.294853   569361 
   22000    1.1501412   -3.0391299   -3.0391299   -1.7460869   0.19692403   -3.0391299     1.293043   569361 
   23000    1.1493255   -3.0395168   -3.0395168   -1.7473908   0.17927842   -3.0395168     1.292126   569361 
   24000    1.1495455   -3.0408899   -3.0408899   -1.7485166   0.19061144   -3.0408899    1.2923733   569361 
   25000    1.1469727   -3.0401961   -3.0401961   -1.7507152   0.19093591   -3.0401961    1.2894808   569361 
   26000    1.1438558   -3.0382342   -3.0382342   -1.7522576   0.17359581   -3.0382342    1.2859767   569361 
   27000    1.1419973   -3.0368137   -3.0368137   -1.7529265   0.17831849   -3.0368137    1.2838872   569361 
   28000    1.1397826   -3.0360662   -3.0360662   -1.7546687   0.15594696   -3.0360662    1.2813974   569361 
   29000    1.1360436   -3.0337226   -3.0337226   -1.7565288   0.13845211   -3.0337226    1.2771938   569361 
   30000     1.132818   -3.0332902   -3.0332902   -1.7597227   0.16241771   -3.0332902    1.2735675   569361 
   31000    1.1325197   -3.0357538   -3.0357538   -1.7625217   0.14063223   -3.0357538    1.2732321   569361 
   32000    1.1296563   -3.0355771   -3.0355771   -1.7655642   0.15405488   -3.0355771     1.270013   569361 
   33000    1.1272292   -3.0359793   -3.0359793    -1.768695   0.17565623   -3.0359793    1.2672843   569361 
   34000    1.1255893    -3.037681    -3.037681   -1.7722404    0.1487487    -3.037681    1.2654406   569361 
   35000    1.1236725   -3.0387143   -3.0387143   -1.7754287   0.14868702   -3.0387143    1.2632856   569361 
   36000    1.1215407   -3.0399341   -3.0399341   -1.7790452    0.1394179   -3.0399341    1.2608889   569361 
   37000    1.1219061   -3.0426707   -3.0426707    -1.781371   0.14749472   -3.0426707    1.2612997   569361 
   38000    1.1185573   -3.0410445   -3.0410445   -1.7835096   0.14707042   -3.0410445    1.2575349   569361 
   39000    1.1191728   -3.0444952   -3.0444952   -1.7862684   0.15001035   -3.0444952    1.2582268   569361 
   40000    1.1191794   -3.0473064   -3.0473064   -1.7890722   0.14603378   -3.0473064    1.2582342   569361 
   41000    1.1169438   -3.0474688   -3.0474688   -1.7917479   0.13995349   -3.0474688    1.2557209   569361 
   42000    1.1177851   -3.0504295   -3.0504295   -1.7937628   0.13192186   -3.0504295    1.2566668   569361 
   43000    1.1138633   -3.0478341   -3.0478341   -1.7955764   0.13877942   -3.0478341    1.2522577   569361 
   44000    1.1146901   -3.0509568   -3.0509568   -1.7977696   0.14665333   -3.0509568    1.2531872   569361 
   45000    1.1131455   -3.0509555   -3.0509555   -1.7995048   0.12887586   -3.0509555    1.2514507   569361 
   46000    1.1148253   -3.0545784   -3.0545784   -1.8012392   0.13570554   -3.0545784    1.2533392   569361 
   47000    1.1139052   -3.0551645   -3.0551645   -1.8028598   0.14146433   -3.0551645    1.2523048   569361 
   48000    1.1138256   -3.0574297   -3.0574297   -1.8052144   0.12871994   -3.0574297    1.2522153   569361 
   49000    1.1138784   -3.0594978   -3.0594978   -1.8072231   0.12486043   -3.0594978    1.2522747   569361 
   50000    1.1129787    -3.060169    -3.060169   -1.8089059   0.16317458    -3.060169    1.2512631   569361 
   51000    1.1155493   -3.0640962   -3.0640962   -1.8099431   0.14348049   -3.0640962    1.2541531   569361 
   52000    1.1144843   -3.0647942   -3.0647942   -1.8118384   0.13743413   -3.0647942    1.2529558   569361 
   53000    1.1141455   -3.0666663   -3.0666663   -1.8140914   0.12368947   -3.0666663    1.2525749   569361 
   54000    1.1135183   -3.0674272   -3.0674272   -1.8155574   0.13218611   -3.0674272    1.2518698   569361 
   55000    1.1129708   -3.0682831   -3.0682831   -1.8170288   0.15177145   -3.0682831    1.2512543   569361 
   56000    1.1144462    -3.069653    -3.069653     -1.81674   0.15236184    -3.069653     1.252913   569361 
   57000    1.1151252   -3.0717177   -3.0717177   -1.8180413   0.13290457   -3.0717177    1.2536764   569361 
   58000    1.1125368   -3.0707814   -3.0707814   -1.8200151   0.14748089   -3.0707814    1.2507663   569361 
   59000    1.1131108   -3.0733147   -3.0733147    -1.821903   0.13306705   -3.0733147    1.2514117   569361 
   60000    1.1134921    -3.075053    -3.075053   -1.8232127   0.14097953    -3.075053    1.2518403   569361 
   61000    1.1138935   -3.0773398   -3.0773398   -1.8250482    0.1570409   -3.0773398    1.2522916   569361 
   62000    1.1104135   -3.0744139   -3.0744139   -1.8260347   0.13157934   -3.0744139    1.2483792   569361 
   63000    1.1119055   -3.0777628   -3.0777628   -1.8277062   0.14558919   -3.0777628    1.2500566   569361 
   64000     1.111267   -3.0786461   -3.0786461   -1.8293073   0.12250992   -3.0786461    1.2493388   569361 
   65000    1.1101227   -3.0780448   -3.0780448   -1.8299924   0.14766292   -3.0780448    1.2480523   569361 
   66000    1.1083682   -3.0772182   -3.0772182   -1.8311384    0.1341519   -3.0772182    1.2460799   569361 
   67000    1.1101901    -3.080719    -3.080719    -1.832591   0.15898503    -3.080719     1.248128   569361 
   68000    1.1080534   -3.0797521   -3.0797521   -1.8340262   0.13935566   -3.0797521    1.2457259   569361 
   69000    1.1068807   -3.0807809   -3.0807809   -1.8363734   0.13254814   -3.0807809    1.2444075   569361 
   70000    1.1074513   -3.0828853   -3.0828853   -1.8378363   0.13224045   -3.0828853     1.245049   569361 
   71000    1.1077763   -3.0843793   -3.0843793   -1.8389649   0.13740918   -3.0843793    1.2454144   569361 
   72000    1.1050623   -3.0835308   -3.0835308   -1.8411677   0.14623239   -3.0835308    1.2423631   569361 
   73000    1.1030485   -3.0830334   -3.0830334   -1.8429342   0.13714114   -3.0830334    1.2400992   569361 
   74000    1.1050437   -3.0873478   -3.0873478   -1.8450055   0.12202545   -3.0873478    1.2423423   569361 
   75000    1.1029154   -3.0865992   -3.0865992   -1.8466496   0.14726783   -3.0865992    1.2399496   569361 
   76000    1.1041095   -3.0887721   -3.0887721   -1.8474802   0.12982392   -3.0887721     1.241292   569361 
   77000    1.1014765   -3.0874355   -3.0874355   -1.8491036   0.11407485   -3.0874355    1.2383319   569361 
   78000    1.1004787   -3.0869897   -3.0869897   -1.8497796   0.13136132   -3.0869897    1.2372101   569361 
   79000    1.1021745   -3.0891564   -3.0891564   -1.8500399   0.12325656   -3.0891564    1.2391165   569361 
   80000     1.099814   -3.0875455   -3.0875455   -1.8510827   0.12983885   -3.0875455    1.2364628   569361 
   81000    1.0997685   -3.0887989   -3.0887989   -1.8523873    0.1321914   -3.0887989    1.2364116   569361 
   82000    1.0995316   -3.0887996   -3.0887996   -1.8526543   0.11378832   -3.0887996    1.2361453   569361 
   83000    1.1002472   -3.0910619   -3.0910619   -1.8541121   0.13190827   -3.0910619    1.2369498   569361 
   84000    1.0981258   -3.0902146   -3.0902146   -1.8556498    0.1263413   -3.0902146    1.2345648   569361 
   85000    1.1009582   -3.0940436   -3.0940436   -1.8562944   0.11478073   -3.0940436    1.2377491   569361 
   86000    1.0996457   -3.0948196   -3.0948196   -1.8585459   0.13387957   -3.0948196    1.2362736   569361 
   87000    1.0973522   -3.0942586   -3.0942586   -1.8605634   0.10513734   -3.0942586    1.2336952   569361 
   88000    1.0980134   -3.0952665   -3.0952665    -1.860828   0.11955381   -3.0952665    1.2344385   569361 
   89000    1.0968566   -3.0953102   -3.0953102   -1.8621723   0.12526842   -3.0953102    1.2331379   569361 
   90000    1.0963469   -3.0963584   -3.0963584   -1.8637935   0.12284488   -3.0963584    1.2325649   569361 
   91000    1.0966667   -3.0982098   -3.0982098   -1.8652853   0.12118526   -3.0982098    1.2329245   569361 
   92000    1.0965214   -3.0990109   -3.0990109   -1.8662498   0.13146061   -3.0990109    1.2327611   569361 
   93000    1.0955434   -3.0979199   -3.0979199   -1.8662583   0.11361743   -3.0979199    1.2316616   569361 
   94000    1.0961099   -3.0995988   -3.0995988   -1.8673003   0.14697372   -3.0995988    1.2322985   569361 
   95000    1.0955434   -3.0999924   -3.0999924   -1.8683308    0.1075454   -3.0999924    1.2316616   569361 
   96000    1.0967467   -3.1024558   -3.1024558   -1.8694414   0.13242688   -3.1024558    1.2330144   569361 
   97000    1.0954659   -3.1023548   -3.1023548   -1.8707804   0.11618043   -3.1023548    1.2315744   569361 
   98000    1.0938878   -3.1019742   -3.1019742   -1.8721739   0.12907918   -3.1019742    1.2298002   569361 
   99000    1.0935661   -3.1019896   -3.1019896    -1.872551   0.12665757   -3.1019896    1.2294386   569361 
  100000      1.09276   -3.1025472   -3.1025472   -1.8740148   0.12816165   -3.1025472    1.2285324   569361 
  101000    1.0931971   -3.1038391   -3.1038391   -1.8748153   0.13290242   -3.1038391    1.2290238   569361 
  102000    1.0907953   -3.1017815   -3.1017815    -1.875458   0.12939048   -3.1017815    1.2263235   569361 
  103000    1.0931182   -3.1060692   -3.1060692   -1.8771342   0.12772359   -3.1060692     1.228935   569361 
  104000    1.0908743   -3.1045407   -3.1045407   -1.8781283   0.11423675   -3.1045407    1.2264123   569361 
  105000    1.0916617   -3.1066609   -3.1066609   -1.8793633    0.1187196   -3.1066609    1.2272976   569361 
  106000    1.0909422   -3.1066957   -3.1066957    -1.880207   0.10512138   -3.1066957    1.2264887   569361 
  107000    1.0919362   -3.1091274   -3.1091274   -1.8815213   0.12400307   -3.1091274    1.2276061   569361 
  108000    1.0904052   -3.1075045   -3.1075045   -1.8816195   0.11604449   -3.1075045    1.2258849   569361 
  109000    1.0901156   -3.1085411   -3.1085411   -1.8829817   0.11906335   -3.1085411    1.2255594   569361 
  110000    1.0894096    -3.108206    -3.108206   -1.8834403   0.11170896    -3.108206    1.2247657   569361 
  111000    1.0912815   -3.1115444   -3.1115444   -1.8846742   0.11613127   -3.1115444    1.2268702   569361 
  112000    1.0885262   -3.1107851   -3.1107851   -1.8870126   0.12074338   -3.1107851    1.2237725   569361 
  113000    1.0893872   -3.1138547   -3.1138547   -1.8891142   0.10694883   -3.1138547    1.2247405   569361 
  114000    1.0888127    -3.113971    -3.113971   -1.8898763   0.11010358    -3.113971    1.2240946   569361 
  115000    1.0882508   -3.1138605   -3.1138605   -1.8903976   0.11489596   -3.1138605    1.2234629   569361 
  116000     1.087928   -3.1140294   -3.1140294   -1.8909295    0.1127952   -3.1140294    1.2230999   569361 
  117000    1.0855007   -3.1123416   -3.1123416   -1.8919705   0.11671838   -3.1123416    1.2203711   569361 
  118000    1.0860057   -3.1129694   -3.1129694   -1.8920306   0.11209112   -3.1129694    1.2209388   569361 
  119000    1.0859663   -3.1145423   -3.1145423   -1.8936478   0.13053527   -3.1145423    1.2208945   569361 
  120000    1.0846866   -3.1147044   -3.1147044   -1.8952485   0.10689209   -3.1147044    1.2194559   569361 
  121000    1.0856657    -3.118132    -3.118132   -1.8975754   0.11404146    -3.118132    1.2205566   569361 
  122000    1.0850628    -3.118666    -3.118666   -1.8987871   0.10428206    -3.118666    1.2198788   569361 
  123000    1.0845314   -3.1187632   -3.1187632   -1.8994818    0.1088331   -3.1187632    1.2192814   569361 
  124000    1.0845734    -3.120414    -3.120414   -1.9010854   0.11508362    -3.120414    1.2193286   569361 
  125000    1.0846021   -3.1214263   -3.1214263   -1.9020654   0.11323566   -3.1214263    1.2193609   569361 
  126000    1.0840303   -3.1211199   -3.1211199   -1.9024018   0.12616464   -3.1211199     1.218718   569361 
  127000    1.0832796   -3.1213078   -3.1213078   -1.9034338  0.097841265   -3.1213078     1.217874   569361 
  128000    1.0818402   -3.1201011   -3.1201011   -1.9038454   0.11839487   -3.1201011    1.2162558   569361 
  129000    1.0817914   -3.1200156   -3.1200156   -1.9038147  0.096717798   -3.1200156    1.2162009   569361 
  130000    1.0800974   -3.1192971   -3.1192971   -1.9050006   0.11212272   -3.1192971    1.2142965   569361 
  131000    1.0822917   -3.1225264   -3.1225264    -1.905763   0.10155402   -3.1225264    1.2167634   569361 
  132000    1.0831448   -3.1222559   -3.1222559   -1.9045334   0.10541302   -3.1222559    1.2177225   569361 
  133000    1.0818585   -3.1221833   -3.1221833    -1.905907  0.099647187   -3.1221833    1.2162763   569361 
  134000    1.0811823   -3.1224895   -3.1224895   -1.9069734   0.11554316   -3.1224895    1.2155162   569361 
  135000    1.0804401   -3.1222366   -3.1222366   -1.9075549   0.12305437   -3.1222366    1.2146817   569361 
  136000    1.0828832    -3.124408    -3.124408   -1.9069797   0.11130951    -3.124408    1.2174284   569361 
  137000    1.0833556   -3.1259261   -3.1259261   -1.9079666   0.10385322   -3.1259261    1.2179595   569361 
  138000     1.081567   -3.1249725   -3.1249725   -1.9090238   0.10545834   -3.1249725    1.2159487   569361 
  139000    1.0802115   -3.1240027   -3.1240027   -1.9095779   0.12002945   -3.1240027    1.2144248   569361 
  140000    1.0801108   -3.1238992   -3.1238992   -1.9095877   0.12679228   -3.1238992    1.2143115   569361 
  141000    1.0786317   -3.1233443   -3.1233443   -1.9106956   0.11525815   -3.1233443    1.2126487   569361 
  142000    1.0792671   -3.1244544   -3.1244544   -1.9110913   0.10882583   -3.1244544    1.2133631   569361 
  143000    1.0819806   -3.1265045   -3.1265045   -1.9100909   0.11188985   -3.1265045    1.2164137   569361 
  144000    1.0812246   -3.1270487   -3.1270487    -1.911485    0.1024463   -3.1270487    1.2155637   569361 
  145000    1.0802276   -3.1263992   -3.1263992   -1.9119563   0.10468562   -3.1263992    1.2144429   569361 
  146000    1.0785517   -3.1258505   -3.1258505   -1.9132917   0.12239441   -3.1258505    1.2125587   569361 
  147000      1.07882   -3.1273692   -3.1273692   -1.9145088   0.10332136   -3.1273692    1.2128604   569361 
  148000     1.077609   -3.1264509   -3.1264509    -1.914952  0.091185429   -3.1264509    1.2114989   569361 
  149000    1.0784677   -3.1288558   -3.1288558   -1.9163916   0.11620618   -3.1288558    1.2124642   569361 
  150000    1.0784187    -3.128212    -3.128212   -1.9158028  0.098086991    -3.128212    1.2124092   569361 
  151000    1.0777345   -3.1282073   -3.1282073   -1.9165674   0.10773201   -3.1282073    1.2116399   569361 
  152000    1.0774302   -3.1280168   -3.1280168   -1.9167189  0.091222066   -3.1280168    1.2112979   569361 
  153000    1.0767248   -3.1285071   -3.1285071   -1.9180023    0.1047331   -3.1285071    1.2105048   569361 
  154000    1.0770164    -3.129514    -3.129514   -1.9186814   0.11265764    -3.129514    1.2108326   569361 
  155000    1.0770702   -3.1306505   -3.1306505   -1.9197574   0.12138099   -3.1306505    1.2108931   569361 
  156000    1.0765246   -3.1302216   -3.1302216   -1.9199418   0.10292676   -3.1302216    1.2102798   569361 
  157000    1.0753466   -3.1297541   -3.1297541   -1.9207987   0.10918229   -3.1297541    1.2089554   569361 
  158000    1.0771585   -3.1328503   -3.1328503   -1.9218579   0.11557057   -3.1328503    1.2109924   569361 
  159000    1.0761059   -3.1327404   -3.1327404   -1.9229314  0.091575571   -3.1327404     1.209809   569361 
  160000    1.0766598   -3.1327192   -3.1327192   -1.9222874   0.10409914   -3.1327192    1.2104318   569361 
  161000    1.0757918   -3.1321152   -3.1321152   -1.9226592   0.10400016   -3.1321152    1.2094559   569361 
  162000    1.0758431   -3.1338187   -3.1338187   -1.9243052   0.10613423   -3.1338187    1.2095136   569361 
  163000    1.0755655   -3.1344704   -3.1344704   -1.9252689   0.10572567   -3.1344704    1.2092015   569361 
  164000    1.0757168   -3.1361386   -3.1361386    -1.926767  0.094952833   -3.1361386    1.2093716   569361 
  165000    1.0739044   -3.1338325   -3.1338325   -1.9264986   0.11429508   -3.1338325     1.207334   569361 
  166000    1.0741741    -3.134322    -3.134322   -1.9266848   0.10641589    -3.134322    1.2076372   569361 
  167000    1.0740885   -3.1342294   -3.1342294   -1.9266885  0.099095043   -3.1342294    1.2075409   569361 
  168000    1.0751606   -3.1359915   -3.1359915   -1.9272453  0.096843248   -3.1359915    1.2087462   569361 
  169000     1.073633   -3.1353448   -3.1353448   -1.9283159  0.099054876   -3.1353448    1.2070289   569361 
  170000    1.0729363   -3.1348059   -3.1348059   -1.9285602  0.099593303   -3.1348059    1.2062456   569361 
  171000     1.071947   -3.1352689   -3.1352689   -1.9301355   0.10031046   -3.1352689    1.2051334   569361 
  172000     1.071966   -3.1366132   -3.1366132   -1.9314584   0.10542078   -3.1366132    1.2051547   569361 
  173000      1.07394   -3.1394621   -3.1394621   -1.9320881   0.10274892   -3.1394621     1.207374   569361 
  174000    1.0733848   -3.1387178   -3.1387178    -1.931968   0.10953809   -3.1387178    1.2067498   569361 
  175000    1.0739035   -3.1406113   -3.1406113   -1.9332784   0.10557978   -3.1406113     1.207333   569361 
  176000    1.0715554   -3.1384409   -3.1384409   -1.9337478   0.11009711   -3.1384409    1.2046931   569361 
  177000    1.0718706   -3.1388876   -3.1388876   -1.9338401   0.10746726   -3.1388876    1.2050475   569361 
  178000     1.072291   -3.1403852   -3.1403852   -1.9348651  0.095450043   -3.1403852    1.2055202   569361 
  179000    1.0731659     -3.14395     -3.14395   -1.9374462  0.097339167     -3.14395    1.2065037   569361 
  180000    1.0710173   -3.1422535   -3.1422535   -1.9381653    0.1041368   -3.1422535    1.2040882   569361 
  181000     1.069722   -3.1407668   -3.1407668   -1.9381349   0.12186531   -3.1407668    1.2026319   569361 
  182000    1.0717915   -3.1440889   -3.1440889   -1.9391303   0.11528526   -3.1440889    1.2049586   569361 
  183000    1.0720288   -3.1452025   -3.1452025   -1.9399772   0.10904308   -3.1452025    1.2052253   569361 
  184000    1.0716542   -3.1453479   -3.1453479   -1.9405437  0.095421548   -3.1453479    1.2048042   569361 
  185000    1.0719645    -3.145757    -3.145757    -1.940604   0.10655051    -3.145757     1.205153   569361 
  186000    1.0708005   -3.1447873   -3.1447873   -1.9409428  0.094383687   -3.1447873    1.2038445   569361 
  187000    1.0719547   -3.1460497   -3.1460497   -1.9409076   0.11054341   -3.1460497    1.2051421   569361 
  188000    1.0699734   -3.1445019   -3.1445019   -1.9415873  0.098826083   -3.1445019    1.2029146   569361 
  189000    1.0698162   -3.1447798   -3.1447798    -1.942042    0.1018345   -3.1447798    1.2027378   569361 
  190000    1.0703965   -3.1456365   -3.1456365   -1.9422462  0.095884463   -3.1456365    1.2033903   569361 
  191000    1.0705918   -3.1461118   -3.1461118    -1.942502   0.10179145   -3.1461118    1.2036098   569361 
  192000    1.0696426   -3.1455737   -3.1455737   -1.9430311   0.10544281   -3.1455737    1.2025426   569361 
  193000    1.0703524   -3.1478007   -3.1478007   -1.9444601   0.10979109   -3.1478007    1.2033406   569361 
  194000    1.0683828   -3.1456943   -3.1456943    -1.944568   0.10166435   -3.1456943    1.2011264   569361 
  195000    1.0691668   -3.1474151   -3.1474151   -1.9454073   0.10294249   -3.1474151    1.2020078   569361 
  196000    1.0690074   -3.1475864   -3.1475864   -1.9457578   0.10028845   -3.1475864    1.2018286   569361 
  197000    1.0688505     -3.14866     -3.14866   -1.9470078  0.086441373     -3.14866    1.2016522   569361 
  198000    1.0684779    -3.149514    -3.149514   -1.9482808  0.092243898    -3.149514    1.2012332   569361 
  199000    1.0674242   -3.1491679   -3.1491679   -1.9491192  0.092874698   -3.1491679    1.2000486   569361 
  200000    1.0667415   -3.1483558   -3.1483558   -1.9490747   0.10168081   -3.1483558    1.1992811   569361 
  201000    1.0685188    -3.149308    -3.149308   -1.9480287   0.11074413    -3.149308    1.2012793   569361 
  202000    1.0660056   -3.1472167   -3.1472167   -1.9487629   0.10261966   -3.1472167    1.1984538   569361 
  203000    1.0681486   -3.1498703   -3.1498703   -1.9490072   0.10951481   -3.1498703    1.2008631   569361 
  204000    1.0667664   -3.1500564   -3.1500564   -1.9507473   0.10475848   -3.1500564    1.1993091   569361 
  205000    1.0666141   -3.1505701   -3.1505701   -1.9514322  0.089562966   -3.1505701    1.1991379   569361 
  206000    1.0666845    -3.151317    -3.151317      -1.9521  0.090566288    -3.151317     1.199217   569361 
  207000    1.0649426   -3.1499836   -3.1499836   -1.9527249  0.086062975   -3.1499836    1.1972587   569361 
  208000    1.0668941   -3.1527124   -3.1527124   -1.9532598   0.10134496   -3.1527124    1.1994527   569361 
  209000    1.0679005   -3.1540736   -3.1540736   -1.9534895  0.086241652   -3.1540736    1.2005841   569361 
  210000    1.0654042   -3.1522999   -3.1522999   -1.9545223   0.10516347   -3.1522999    1.1977776   569361 
  211000    1.0668822   -3.1537559   -3.1537559   -1.9543166  0.098761022   -3.1537559    1.1994393   569361 
  212000     1.065647   -3.1530402   -3.1530402   -1.9549896   0.10226423   -3.1530402    1.1980506   569361 
  213000    1.0662877   -3.1533435   -3.1533435   -1.9545725  0.097357108   -3.1533435     1.198771   569361 
  214000    1.0652383   -3.1521068   -3.1521068   -1.9545156  0.099666374   -3.1521068    1.1975912   569361 
  215000    1.0653374   -3.1523088   -3.1523088   -1.9546062   0.10157434   -3.1523088    1.1977026   569361 
  216000    1.0639315   -3.1502574   -3.1502574   -1.9541354   0.10642987   -3.1502574     1.196122   569361 
  217000     1.063635   -3.1502835   -3.1502835   -1.9544949  0.085685473   -3.1502835    1.1957886   569361 
  218000    1.0634449   -3.1506095   -3.1506095   -1.9550345  0.090234906   -3.1506095     1.195575   569361 
  219000    1.0631447   -3.1508686   -3.1508686   -1.9556311  0.098810638   -3.1508686    1.1952375   569361 
  220000    1.0659676   -3.1548732   -3.1548732   -1.9564622   0.11682815   -3.1548732     1.198411   569361 
  221000    1.0634683   -3.1533109   -3.1533109   -1.9577097   0.10025542   -3.1533109    1.1956013   569361 
  222000    1.0647783    -3.154786    -3.154786    -1.957712   0.09254252    -3.154786     1.197074   569361 
  223000    1.0639101   -3.1552796   -3.1552796   -1.9591817  0.094432611   -3.1552796    1.1960979   569361 
  224000    1.0643083    -3.156736    -3.156736   -1.9601904   0.10827932    -3.156736    1.1965456   569361 
  225000    1.0636596   -3.1560494   -3.1560494   -1.9602331  0.095344771   -3.1560494    1.1958163   569361 
  226000    1.0638636   -3.1571514   -3.1571514   -1.9611058   0.10553802   -3.1571514    1.1960456   569361 
  227000    1.0645966   -3.1580197   -3.1580197     -1.96115   0.10078153   -3.1580197    1.1968697   569361 
  228000    1.0617657   -3.1553887   -3.1553887   -1.9617016   0.11795385   -3.1553887    1.1936871   569361 
  229000    1.0625195   -3.1579054   -3.1579054   -1.9633709  0.090480233   -3.1579054    1.1945345   569361 
  230000     1.062501   -3.1583153   -3.1583153   -1.9638015  0.092997772   -3.1583153    1.1945138   569361 
  231000    1.0617074   -3.1576842   -3.1576842   -1.9640627  0.086914158   -3.1576842    1.1936215   569361 
  232000    1.0633414   -3.1593868   -3.1593868   -1.9639282  0.098490805   -3.1593868    1.1954586   569361 
  233000    1.0632201   -3.1607994   -3.1607994   -1.9654771   0.10791648   -3.1607994    1.1953222   569361 
  234000    1.0603263   -3.1579117   -3.1579117   -1.9658428  0.089249281   -3.1579117    1.1920689   569361 
  235000    1.0637495    -3.161439    -3.161439   -1.9655217  0.094254516    -3.161439    1.1959174   569361 
  236000    1.0618987   -3.1608001   -3.1608001   -1.9669636  0.097939168   -3.1608001    1.1938366   569361 
  237000    1.0609249   -3.1606886   -3.1606886   -1.9679468   0.10177454   -3.1606886    1.1927418   569361 
  238000    1.0617399   -3.1614353   -3.1614353   -1.9677772   0.11432943   -3.1614353    1.1936581   569361 
  239000    1.0615958   -3.1624574   -3.1624574   -1.9689613   0.10215792   -3.1624574    1.1934961   569361 
  240000    1.0615486   -3.1626328   -3.1626328   -1.9691898  0.092658576   -3.1626328     1.193443   569361 
  241000    1.0622722   -3.1645181   -3.1645181   -1.9702616   0.10972275   -3.1645181    1.1942565   569361 
  242000    1.0637315   -3.1658647   -3.1658647   -1.9699676  0.096845421   -3.1658647    1.1958971   569361 
  243000    1.0595307   -3.1610605   -3.1610605    -1.969886  0.070371678   -3.1610605    1.1911744   569361 
  244000    1.0598304    -3.162003    -3.162003   -1.9704916   0.11288216    -3.162003    1.1915113   569361 
  245000    1.0598184   -3.1615297   -3.1615297   -1.9700319  0.082780598   -3.1615297    1.1914978   569361 
  246000    1.0595906   -3.1624697   -3.1624697    -1.971228  0.084675612   -3.1624697    1.1912417   569361 
  247000    1.0610786   -3.1644892   -3.1644892   -1.9715745  0.090833858   -3.1644892    1.1929146   569361 
  248000    1.0603572   -3.1638702   -3.1638702   -1.9717666  0.097937609   -3.1638702    1.1921036   569361 
  249000    1.0602689   -3.1651211   -3.1651211   -1.9731167  0.080441783   -3.1651211    1.1920043   569361 
  250000    1.0600941     -3.16644     -3.16644   -1.9746323   0.10371629     -3.16644    1.1918078   569361 
  251000    1.0602097   -3.1670734   -3.1670734   -1.9751357  0.081394764   -3.1670734    1.1919377   569361 
  252000     1.058776    -3.166464    -3.166464   -1.9761381  0.087721812    -3.166464    1.1903259   569361 
  253000    1.0606485   -3.1694368   -3.1694368   -1.9770057   0.10376059   -3.1694368    1.1924311   569361 
  254000    1.0584101   -3.1667333   -3.1667333   -1.9768188  0.096510953   -3.1667333    1.1899145   569361 
  255000    1.0613972   -3.1695726   -3.1695726   -1.9762998   0.08534917   -3.1695726    1.1932728   569361 
  256000    1.0606799   -3.1689448   -3.1689448   -1.9764784  0.091892192   -3.1689448    1.1924664   569361 
  257000    1.0606485   -3.1690982   -3.1690982   -1.9766671   0.10151055   -3.1690982    1.1924311   569361 
  258000    1.0587154   -3.1689283   -3.1689283   -1.9786705  0.087093167   -3.1689283    1.1902578   569361 
  259000    1.0575993   -3.1678471   -3.1678471    -1.978844    0.1019734   -3.1678471     1.189003   569361 
  260000    1.0576893    -3.168295    -3.168295   -1.9791909   0.10783797    -3.168295    1.1891042   569361 
  261000     1.057634   -3.1700067   -3.1700067   -1.9809647  0.082542084   -3.1700067     1.189042   569361 
  262000    1.0585532   -3.1714576   -3.1714576   -1.9813821  0.091118261   -3.1714576    1.1900755   569361 
  263000    1.0562726    -3.169546    -3.169546   -1.9820345   0.10084641    -3.169546    1.1875115   569361 
  264000    1.0565032   -3.1695985   -3.1695985   -1.9818278  0.095791743   -3.1695985    1.1877707   569361 
  265000    1.0583727   -3.1715906   -3.1715906   -1.9817181   0.10330833   -3.1715906    1.1898725   569361 
  266000    1.0584113   -3.1724035   -3.1724035   -1.9824876  0.086059098   -3.1724035    1.1899159   569361 
  267000    1.0587155   -3.1728362   -3.1728362   -1.9825783   0.09106009   -3.1728362     1.190258   569361 
  268000    1.0576916   -3.1725276   -3.1725276   -1.9834208   0.08911471   -3.1725276    1.1891068   569361 
  269000    1.0581221   -3.1728245   -3.1728245   -1.9832337  0.086320016   -3.1728245    1.1895908   569361 
  270000    1.0580026   -3.1733246   -3.1733246   -1.9838683  0.095605058   -3.1733246    1.1894564   569361 
  271000    1.0570435    -3.173683    -3.173683   -1.9853048  0.097616351    -3.173683    1.1883782   569361 
  272000    1.0572711   -3.1743072   -3.1743072   -1.9856731  0.082942541   -3.1743072    1.1886341   569361 
  273000    1.0575243   -3.1748326   -3.1748326   -1.9859138  0.083067083   -3.1748326    1.1889188   569361 
  274000    1.0570219    -3.175817    -3.175817   -1.9874631  0.097350941    -3.175817    1.1883539   569361 
  275000     1.055538   -3.1743471   -3.1743471   -1.9876615  0.086653778   -3.1743471    1.1866856   569361 
  276000    1.0570654   -3.1763489   -3.1763489   -1.9879461   0.08592203   -3.1763489    1.1884028   569361 
  277000    1.0571203   -3.1753997   -3.1753997   -1.9869352  0.075415702   -3.1753997    1.1884645   569361 
  278000    1.0552534   -3.1739134   -3.1739134   -1.9875477  0.086869073   -3.1739134    1.1863657   569361 
  279000    1.0577738   -3.1771538   -3.1771538   -1.9879546  0.095017105   -3.1771538    1.1891992   569361 
  280000    1.0582145   -3.1772428   -3.1772428   -1.9875481  0.075872293   -3.1772428    1.1896947   569361 
  281000    1.0582087   -3.1779906   -3.1779906   -1.9883024  0.091335035   -3.1779906    1.1896881   569361 
  282000    1.0565727   -3.1765428   -3.1765428   -1.9886939  0.092785173   -3.1765428    1.1878489   569361 
  283000    1.0546542   -3.1750225   -3.1750225   -1.9893305   0.07444742   -3.1750225     1.185692   569361 
  284000     1.056347   -3.1768235   -3.1768235   -1.9892284  0.097628282   -3.1768235    1.1875951   569361 
  285000    1.0573071   -3.1769223   -3.1769223   -1.9882478  0.081413287   -3.1769223    1.1886745   569361 
  286000     1.055694   -3.1756863   -3.1756863   -1.9888253  0.094705125   -3.1756863     1.186861   569361 
  287000     1.055835   -3.1778394   -3.1778394   -1.9908198  0.086017385   -3.1778394    1.1870196   569361 
  288000     1.055413   -3.1782571   -3.1782571    -1.991712  0.079483929   -3.1782571    1.1865451   569361 
  289000    1.0557735   -3.1782117   -3.1782117   -1.9912613  0.077961283   -3.1782117    1.1869504   569361 
  290000    1.0538609   -3.1763669   -3.1763669   -1.9915667  0.085716977   -3.1763669    1.1848002   569361 
  291000    1.0552596   -3.1792786   -3.1792786    -1.992906  0.065939967   -3.1792786    1.1863726   569361 
  292000     1.054278   -3.1782155   -3.1782155   -1.9929464  0.090923271   -3.1782155    1.1852691   569361 
  293000    1.0537006   -3.1783733   -3.1783733   -1.9937534   0.08503178   -3.1783733    1.1846199   569361 
  294000    1.0553016     -3.17995     -3.17995   -1.9935302  0.096811796     -3.17995    1.1864198   569361 
  295000    1.0559225    -3.181369    -3.181369   -1.9942512  0.093788838    -3.181369    1.1871179   569361 
  296000    1.0565061   -3.1813621   -3.1813621   -1.9935881  0.094121383   -3.1813621     1.187774   569361 
  297000    1.0540062   -3.1797514   -3.1797514   -1.9947879  0.080195857   -3.1797514    1.1849635   569361 
  298000    1.0533432   -3.1793011   -3.1793011    -1.995083  0.092391919   -3.1793011    1.1842181   569361 
  299000    1.0525566   -3.1788959   -3.1788959   -1.9955622  0.080277801   -3.1788959    1.1833338   569361 
  300000    1.0518607   -3.1787197   -3.1787197   -1.9961683  0.091499664   -3.1787197    1.1825515   569361 
  301000    1.0529545   -3.1804217   -3.1804217   -1.9966406  0.074228285   -3.1804217    1.1837812   569361 
  302000    1.0528223   -3.1804559   -3.1804559   -1.9968234  0.092838537   -3.1804559    1.1836325   569361 
  303000    1.0524906   -3.1805289   -3.1805289   -1.9972692  0.075407907   -3.1805289    1.1832596   569361 
  304000    1.0545787   -3.1829911   -3.1829911    -1.997384  0.088665133   -3.1829911    1.1856071   569361 
  305000    1.0513179   -3.1803831   -3.1803831   -1.9984419  0.061731647   -3.1803831    1.1819412   569361 
  306000    1.0515091   -3.1805312   -3.1805312    -1.998375  0.099475884   -3.1805312    1.1821561   569361 
  307000    1.0520711   -3.1814851   -3.1814851   -1.9986972  0.087223088   -3.1814851    1.1827879   569361 
  308000    1.0510976   -3.1797603   -3.1797603   -1.9980668   0.09010936   -3.1797603    1.1816935   569361 
  309000    1.0523584   -3.1815483   -3.1815483   -1.9984373   0.10414882   -3.1815483     1.183111   569361 
  310000    1.0527943   -3.1823294   -3.1823294   -1.9987284  0.087752389   -3.1823294    1.1836011   569361 
  311000    1.0515957   -3.1823487   -3.1823487   -2.0000952  0.092373449   -3.1823487    1.1822535   569361 
  312000    1.0532764    -3.183789    -3.183789    -1.999646  0.078109903    -3.183789     1.184143   569361 
  313000     1.051846    -3.182763    -3.182763   -2.0002281  0.070203886    -3.182763    1.1825349   569361 
  314000    1.0524713   -3.1837211   -3.1837211   -2.0004832  0.075628415   -3.1837211    1.1832379   569361 
  315000    1.0524365   -3.1846533   -3.1846533   -2.0014545   0.10757152   -3.1846533    1.1831988   569361 
  316000    1.0529766   -3.1859751   -3.1859751   -2.0021691  0.083475909   -3.1859751    1.1838059   569361 
  317000     1.051775   -3.1845404   -3.1845404   -2.0020853  0.095327505   -3.1845404    1.1824551   569361 
  318000    1.0537843    -3.186902    -3.186902    -2.002188  0.082926034    -3.186902     1.184714   569361 
  319000    1.0525227   -3.1867147   -3.1867147    -2.003419  0.091078134   -3.1867147    1.1832957   569361 
  320000    1.0534391   -3.1872512   -3.1872512   -2.0029253  0.086453783   -3.1872512     1.184326   569361 
  321000     1.051711   -3.1853494   -3.1853494   -2.0029663  0.094718239   -3.1853494    1.1823831   569361 
  322000     1.052986   -3.1876586   -3.1876586    -2.003842  0.084409706   -3.1876586    1.1838166   569361 
  323000    1.0532604   -3.1886111   -3.1886111    -2.004486  0.097191976   -3.1886111    1.1841251   569361 
  324000    1.0511081   -3.1863289   -3.1863289   -2.0046236   0.09758998   -3.1863289    1.1817054   569361 
  325000    1.0506848   -3.1869098   -3.1869098   -2.0056803  0.082170635   -3.1869098    1.1812294   569361 
  326000    1.0511316   -3.1870899   -3.1870899   -2.0053581  0.077992712   -3.1870899    1.1817318   569361 
  327000    1.0506293   -3.1875483   -3.1875483   -2.0063813  0.083750214   -3.1875483     1.181167   569361 
  328000    1.0506422   -3.1884791   -3.1884791   -2.0072975  0.071476158   -3.1884791    1.1811816   569361 
  329000    1.0517928   -3.1901393   -3.1901393   -2.0076642  0.078371489   -3.1901393    1.1824751   569361 
  330000    1.0512757   -3.1893395   -3.1893395   -2.0074458  0.073101604   -3.1893395    1.1818937   569361 
  331000    1.0508727   -3.1896567   -3.1896567   -2.0082161  0.090760608   -3.1896567    1.1814406   569361 
  332000    1.0507966   -3.1899165   -3.1899165   -2.0085614  0.087045967   -3.1899165    1.1813551   569361 
  333000    1.0502544    -3.189865    -3.189865   -2.0091194  0.075719721    -3.189865    1.1807456   569361 
  334000    1.0489381   -3.1883135   -3.1883135   -2.0090478  0.095226007   -3.1883135    1.1792657   569361 
  335000    1.0498842    -3.190026    -3.190026   -2.0096967  0.083649757    -3.190026    1.1803294   569361 
  336000    1.0499803   -3.1901775   -3.1901775   -2.0097401   0.09019007   -3.1901775    1.1804374   569361 
  337000    1.0498143   -3.1909025   -3.1909025   -2.0106517  0.074967174   -3.1909025    1.1802508   569361 
  338000    1.0496147   -3.1904202   -3.1904202   -2.0103939  0.083551604   -3.1904202    1.1800264   569361 
  339000    1.0484127   -3.1898574   -3.1898574   -2.0111824  0.093321229   -3.1898574     1.178675   569361 
  340000    1.0485117    -3.189739    -3.189739   -2.0109527  0.078388624    -3.189739    1.1787863   569361 
  341000    1.0506846    -3.193375    -3.193375   -2.0121457  0.081539114    -3.193375    1.1812293   569361 
  342000    1.0495649   -3.1920307   -3.1920307   -2.0120604  0.084535693   -3.1920307    1.1799703   569361 
  343000    1.0486339   -3.1916203   -3.1916203   -2.0126966  0.093488991   -3.1916203    1.1789237   569361 
  344000    1.0485631   -3.1921638   -3.1921638   -2.0133197  0.085103688   -3.1921638    1.1788441   569361 
  345000    1.0481264   -3.1915907   -3.1915907   -2.0132375   0.08276072   -3.1915907    1.1783532   569361 
  346000    1.0479395   -3.1911868   -3.1911868   -2.0130438  0.089670072   -3.1911868     1.178143   569361 
  347000    1.0491376   -3.1926686   -3.1926686   -2.0131787  0.068890272   -3.1926686      1.17949   569361 
  348000    1.0478354   -3.1918531   -3.1918531   -2.0138271  0.092990376   -3.1918531     1.178026   569361 
  349000    1.0479005   -3.1922923   -3.1922923   -2.0141931  0.079772856   -3.1922923    1.1780992   569361 
  350000    1.0476231   -3.1921127   -3.1921127   -2.0143254  0.070906701   -3.1921127    1.1777873   569361 
  351000    1.0488112   -3.1939818   -3.1939818   -2.0148587   0.10239943   -3.1939818     1.179123   569361 
  352000    1.0483028    -3.193224    -3.193224   -2.0146725  0.076895857    -3.193224    1.1785515   569361 
  353000    1.0476225   -3.1928519   -3.1928519   -2.0150653  0.083313484   -3.1928519    1.1777867   569361 
  354000    1.0492672    -3.195142    -3.195142   -2.0155063  0.080435523    -3.195142    1.1796357   569361 
  355000    1.0484334   -3.1944503   -3.1944503   -2.0157521  0.066342444   -3.1944503    1.1786982   569361 
  356000    1.0485979   -3.1954954   -3.1954954   -2.0166122  0.071555931   -3.1954954    1.1788833   569361 
  357000    1.0476083   -3.1940467   -3.1940467   -2.0162761  0.088058294   -3.1940467    1.1777706   569361 
  358000    1.0486151   -3.1959165   -3.1959165   -2.0170139  0.085727696   -3.1959165    1.1789025   569361 
  359000    1.0493296   -3.1968563   -3.1968563   -2.0171505  0.072507435   -3.1968563    1.1797058   569361 
  360000     1.049482   -3.1976936   -3.1976936   -2.0178164   0.08118567   -3.1976936    1.1798772   569361 
  361000    1.0472237   -3.1951696   -3.1951696   -2.0178314   0.08513929   -3.1951696    1.1773383   569361 
  362000    1.0460461   -3.1943306   -3.1943306   -2.0183162  0.066482792   -3.1943306    1.1760143   569361 
  363000    1.0472169   -3.1955406   -3.1955406   -2.0182099  0.082485583   -3.1955406    1.1773307   569361 
  364000    1.0470862   -3.1951752   -3.1951752   -2.0179915  0.085923591   -3.1951752    1.1771838   569361 
  365000    1.0481742   -3.1974708   -3.1974708   -2.0190639  0.087517481   -3.1974708    1.1784069   569361 
  366000    1.0494061   -3.1987081   -3.1987081   -2.0189163  0.085688562   -3.1987081    1.1797918   569361 
  367000    1.0486322    -3.198565    -3.198565   -2.0196432  0.090987492    -3.198565    1.1789217   569361 
  368000    1.0483003   -3.1988992   -3.1988992   -2.0203505  0.091424496   -3.1988992    1.1785487   569361 
  369000    1.0465664   -3.1971543   -3.1971543    -2.020555  0.075078592   -3.1971543    1.1765993   569361 
  370000    1.0484783   -3.2001057   -3.2001057   -2.0213569  0.085792381   -3.2001057    1.1787487   569361 
  371000    1.0491812   -3.2007706   -3.2007706   -2.0212316  0.078676924   -3.2007706     1.179539   569361 
  372000     1.047969   -3.2009495   -3.2009495   -2.0227733  0.082275485   -3.2009495    1.1781762   569361 
  373000    1.0474732   -3.2004604   -3.2004604   -2.0228416  0.083506384   -3.2004604    1.1776188   569361 
  374000    1.0466505   -3.2002435   -3.2002435   -2.0235497  0.082454407   -3.2002435    1.1766938   569361 
  375000    1.0458659   -3.1990357   -3.1990357   -2.0232239  0.090057102   -3.1990357    1.1758118   569361 
  376000    1.0453414   -3.1986475   -3.1986475   -2.0234254   0.09164198   -3.1986475    1.1752221   569361 
  377000    1.0468829   -3.2003081   -3.2003081   -2.0233529  0.083346212   -3.2003081    1.1769552   569361 
  378000    1.0458657   -3.1992581   -3.1992581   -2.0234465  0.081877676   -3.1992581    1.1758116   569361 
  379000    1.0446253   -3.1980336   -3.1980336   -2.0236166  0.090423918   -3.1980336     1.174417   569361 
  380000    1.0442181   -3.1977989   -3.1977989   -2.0238397  0.071736883   -3.1977989    1.1739592   569361 
  381000    1.0466076   -3.2000424   -3.2000424   -2.0233967  0.091361211   -3.2000424    1.1766456   569361 
  382000    1.0484575   -3.2025848   -3.2025848   -2.0238594  0.084348397   -3.2025848    1.1787254   569361 
  383000    1.0458522    -3.199857    -3.199857   -2.0240607  0.085229446    -3.199857    1.1757964   569361 
  384000     1.045489     -3.20118     -3.20118    -2.025792   0.07367167     -3.20118     1.175388   569361 
  385000    1.0472298   -3.2019526   -3.2019526   -2.0246075   0.08318518   -3.2019526    1.1773451   569361 
  386000     1.045011   -3.1995593   -3.1995593   -2.0247086  0.076734623   -3.1995593    1.1748507   569361 
  387000    1.0460394   -3.2004458   -3.2004458   -2.0244389  0.069186338   -3.2004458    1.1760069   569361 
  388000     1.046325    -3.202359    -3.202359    -2.026031  0.093035153    -3.202359    1.1763279   569361 
  389000    1.0447986   -3.2016847   -3.2016847   -2.0270727   0.08921134   -3.2016847    1.1746119   569361 
  390000    1.0462882   -3.2028417   -3.2028417   -2.0265551  0.072313736   -3.2028417    1.1762866   569361 
  391000    1.0462571   -3.2014334   -3.2014334   -2.0251818  0.089432355   -3.2014334    1.1762516   569361 
  392000    1.0459355   -3.2022655   -3.2022655   -2.0263754  0.080886819   -3.2022655      1.17589   569361 
  393000    1.0461611   -3.2030678   -3.2030678   -2.0269241  0.077599422   -3.2030678    1.1761437   569361 
  394000    1.0461265   -3.2028004   -3.2028004   -2.0266956  0.070162334   -3.2028004    1.1761048   569361 
  395000    1.0448825   -3.2029593   -3.2029593   -2.0282532   0.10335188   -3.2029593    1.1747062   569361 
  396000    1.0458213   -3.2053944   -3.2053944   -2.0296327  0.059465081   -3.2053944    1.1757617   569361 
  397000    1.0459671   -3.2044492   -3.2044492   -2.0285236  0.084965315   -3.2044492    1.1759256   569361 
  398000    1.0464173   -3.2043499   -3.2043499   -2.0279181  0.087588801   -3.2043499    1.1764318   569361 
  399000    1.0464036   -3.2046394   -3.2046394   -2.0282232  0.092257912   -3.2046394    1.1764163   569361 
  400000     1.045551   -3.2036667   -3.2036667   -2.0282089  0.085273244   -3.2036667    1.1754578   569361 
  401000    1.0457691   -3.2040293   -3.2040293   -2.0283263  0.071035322   -3.2040293     1.175703   569361 
  402000    1.0458174    -3.204677    -3.204677   -2.0289197  0.073623056    -3.204677    1.1757573   569361 
  403000    1.0444492   -3.2030712   -3.2030712   -2.0288521   0.06469493   -3.2030712    1.1742191   569361 
  404000    1.0444536   -3.2040649   -3.2040649   -2.0298408  0.071032561   -3.2040649    1.1742241   569361 
  405000    1.0450969   -3.2052541   -3.2052541   -2.0303068  0.072515943   -3.2052541    1.1749473   569361 
  406000    1.0456611   -3.2070559   -3.2070559   -2.0314743  0.075866496   -3.2070559    1.1755815   569361 
  407000    1.0446999   -3.2057998   -3.2057998   -2.0312989  0.082426926   -3.2057998    1.1745009   569361 
  408000    1.0428639     -3.20539     -3.20539   -2.0329531  0.090795654     -3.20539    1.1724368   569361 
  409000    1.0422053   -3.2043138   -3.2043138   -2.0326174  0.072508989   -3.2043138    1.1716964   569361 
  410000    1.0441417   -3.2065913   -3.2065913    -2.032718  0.083954643   -3.2065913    1.1738733   569361 
  411000    1.0428223   -3.2058761   -3.2058761   -2.0334861  0.076585907   -3.2058761      1.17239   569361 
  412000    1.0446156    -3.207582    -3.207582   -2.0331759  0.092905719    -3.207582    1.1744061   569361 
  413000    1.0447856   -3.2085262   -3.2085262    -2.033929  0.075977852   -3.2085262    1.1745973   569361 
  414000     1.046092   -3.2099693   -3.2099693   -2.0339033  0.068931756   -3.2099693     1.176066   569361 
  415000     1.044208   -3.2082341   -3.2082341   -2.0342862  0.070185408   -3.2082341    1.1739479   569361 
  416000     1.044512   -3.2091436   -3.2091436   -2.0348539  0.073367816   -3.2091436    1.1742897   569361 
  417000    1.0440707   -3.2085478   -3.2085478   -2.0347542  0.086456334   -3.2085478    1.1737936   569361 
  418000    1.0438782   -3.2083056   -3.2083056   -2.0347284  0.092609725   -3.2083056    1.1735772   569361 
  419000     1.042042   -3.2075909   -3.2075909   -2.0360781  0.075586823   -3.2075909    1.1715128   569361 
  420000     1.045779   -3.2115298   -3.2115298   -2.0358158  0.084768696   -3.2115298    1.1757141   569361 
  421000    1.0445578   -3.2103433   -3.2103433   -2.0360021  0.087805656   -3.2103433    1.1743412   569361 
  422000    1.0443412   -3.2101318   -3.2101318   -2.0360342  0.084413362   -3.2101318    1.1740976   569361 
  423000    1.0436898   -3.2094653   -3.2094653   -2.0360999  0.086971367   -3.2094653    1.1733653   569361 
  424000    1.0413511   -3.2070187   -3.2070187   -2.0362826  0.079639188   -3.2070187    1.1707361   569361 
  425000    1.0444954   -3.2109814   -3.2109814   -2.0367104   0.07090475   -3.2109814     1.174271   569361 
  426000    1.0443438   -3.2110888   -3.2110888   -2.0369883  0.084747602   -3.2110888    1.1741005   569361 
  427000    1.0428052   -3.2097858   -3.2097858    -2.037415  0.066203743   -3.2097858    1.1723708   569361 
  428000    1.0425091   -3.2097771   -3.2097771   -2.0377392  0.064345514   -3.2097771    1.1720379   569361 
  429000     1.042464   -3.2103882   -3.2103882    -2.038401  0.083295157   -3.2103882    1.1719872   569361 
  430000    1.0419098   -3.2090147   -3.2090147   -2.0376506   0.07604552   -3.2090147    1.1713641   569361 
  431000    1.0422204   -3.2098905   -3.2098905   -2.0381771  0.066921106   -3.2098905    1.1717133   569361 
  432000    1.0414849   -3.2093722   -3.2093722   -2.0384857  0.079695956   -3.2093722    1.1708865   569361 
  433000    1.0429027   -3.2108175   -3.2108175   -2.0383371  0.073652297   -3.2108175    1.1724804   569361 
  434000    1.0425509   -3.2113755   -3.2113755   -2.0392906  0.070399441   -3.2113755    1.1720849   569361 
  435000    1.0440434   -3.2131759   -3.2131759   -2.0394131  0.066159395   -3.2131759    1.1737628   569361 
  436000    1.0434078   -3.2132316   -3.2132316   -2.0401833  0.091372263   -3.2132316    1.1730483   569361 
  437000    1.0423562   -3.2122566   -3.2122566   -2.0403905  0.067778951   -3.2122566     1.171866   569361 
  438000    1.0418715    -3.212213    -3.212213   -2.0408919  0.072152593    -3.212213    1.1713211   569361 
  439000    1.0435467   -3.2131097   -3.2131097   -2.0399052  0.087382732   -3.2131097    1.1732044   569361 
  440000    1.0411365   -3.2118281   -3.2118281   -2.0413334   0.06769761   -3.2118281    1.1704948   569361 
  441000    1.0429394   -3.2137998   -3.2137998   -2.0412781  0.071015436   -3.2137998    1.1725217   569361 
  442000    1.0413945   -3.2126995   -3.2126995   -2.0419146  0.080997009   -3.2126995    1.1707849   569361 
  443000    1.0414116     -3.21295     -3.21295   -2.0421459  0.084873596     -3.21295     1.170804   569361 
  444000    1.0401621   -3.2115071   -3.2115071   -2.0421078  0.072943544   -3.2115071    1.1693993   569361 
  445000    1.0411394    -3.213301    -3.213301   -2.0428029  0.077155677    -3.213301    1.1704981   569361 
  446000    1.0431367   -3.2162479   -3.2162479   -2.0435045  0.073886464   -3.2162479    1.1727435   569361 
  447000    1.0429478   -3.2171818   -3.2171818   -2.0446507  0.089161373   -3.2171818    1.1725311   569361 
  448000     1.042221   -3.2161379   -3.2161379   -2.0444239  0.064731797   -3.2161379     1.171714   569361 
  449000    1.0425191   -3.2172367   -3.2172367   -2.0451876  0.068309777   -3.2172367    1.1720491   569361 
  450000     1.044058   -3.2187005   -3.2187005   -2.0449212  0.075343263   -3.2187005    1.1737793   569361 
  451000    1.0426225   -3.2172289   -3.2172289   -2.0450634  0.079666004   -3.2172289    1.1721654   569361 
  452000    1.0423812   -3.2184188   -3.2184188   -2.0465247  0.076001625   -3.2184188    1.1718942   569361 
  453000    1.0419281   -3.2175543   -3.2175543   -2.0461696  0.065891273   -3.2175543    1.1713847   569361 
  454000     1.040724   -3.2167554   -3.2167554   -2.0467243   0.07514807   -3.2167554    1.1700311   569361 
  455000    1.0401897   -3.2161948   -3.2161948   -2.0467644  0.079377935   -3.2161948    1.1694303   569361 
  456000    1.0412182   -3.2166943   -3.2166943   -2.0461078  0.070111377   -3.2166943    1.1705866   569361 
  457000     1.040766   -3.2171081   -3.2171081   -2.0470299  0.064569402   -3.2171081    1.1700782   569361 
  458000      1.04068   -3.2177622   -3.2177622   -2.0477806  0.089793994   -3.2177622    1.1699816   569361 
  459000    1.0425592   -3.2193284   -3.2193284   -2.0472342  0.066556363   -3.2193284    1.1720942   569361 
  460000    1.0412682   -3.2176141   -3.2176141   -2.0469712  0.086423127   -3.2176141    1.1706429   569361 
  461000    1.0420674   -3.2185525   -3.2185525   -2.0470112  0.081933512   -3.2185525    1.1715413   569361 
  462000    1.0394649   -3.2168298   -3.2168298   -2.0482143  0.099151596   -3.2168298    1.1686155   569361 
  463000    1.0404979   -3.2186531   -3.2186531   -2.0488762  0.068722079   -3.2186531    1.1697768   569361 
  464000     1.039947   -3.2177316   -3.2177316   -2.0485741  0.083205724   -3.2177316    1.1691575   569361 
  465000    1.0404443   -3.2185369   -3.2185369   -2.0488203  0.073032712   -3.2185369    1.1697165   569361 
  466000    1.0406693   -3.2197101   -3.2197101   -2.0497406  0.065395614   -3.2197101    1.1699696   569361 
  467000    1.0399596   -3.2195883   -3.2195883   -2.0504167  0.082203083   -3.2195883    1.1691716   569361 
  468000      1.04059   -3.2206955   -3.2206955   -2.0508151  0.077999015   -3.2206955    1.1698804   569361 
  469000    1.0396388   -3.2189667   -3.2189667   -2.0501558  0.098394696   -3.2189667    1.1688109   569361 
  470000    1.0411574   -3.2208132   -3.2208132   -2.0502949  0.075913769   -3.2208132    1.1705183   569361 
  471000    1.0405489   -3.2211572   -3.2211572    -2.051323  0.073238511   -3.2211572    1.1698342   569361 
  472000     1.040002   -3.2216011   -3.2216011   -2.0523818  0.069984927   -3.2216011    1.1692193   569361 
  473000    1.0406704   -3.2221149   -3.2221149   -2.0521441  0.088606048   -3.2221149    1.1699708   569361 
  474000    1.0409404   -3.2217974   -3.2217974   -2.0515231   0.08718285   -3.2217974    1.1702743   569361 
  475000    1.0403008    -3.220638    -3.220638   -2.0510828  0.079790919    -3.220638    1.1695552   569361 
  476000    1.0411127   -3.2223046   -3.2223046   -2.0518366  0.070020954   -3.2223046     1.170468   569361 
  477000    1.0392807   -3.2206628   -3.2206628   -2.0522545  0.072948655   -3.2206628    1.1684084   569361 
  478000    1.0404945   -3.2220283   -3.2220283   -2.0522552  0.080551898   -3.2220283     1.169773   569361 
  479000    1.0412854   -3.2234364   -3.2234364   -2.0527743  0.067011595   -3.2234364    1.1706622   569361 
  480000     1.042326   -3.2243023   -3.2243023   -2.0524703  0.065512592   -3.2243023    1.1718321   569361 
  481000    1.0415653   -3.2234875   -3.2234875   -2.0525106  0.079518122   -3.2234875    1.1709769   569361 
  482000    1.0398071   -3.2231046   -3.2231046   -2.0541044  0.078546649   -3.2231046    1.1690003   569361 
  483000    1.0403142    -3.224233    -3.224233   -2.0546626  0.083267339    -3.224233    1.1695703   569361 
  484000    1.0385745   -3.2232152   -3.2232152   -2.0556008  0.071441039   -3.2232152    1.1676144   569361 
  485000    1.0397178    -3.225027    -3.225027   -2.0561272  0.077967567    -3.225027    1.1688998   569361 
  486000    1.0390299   -3.2237317   -3.2237317   -2.0556053   0.07364774   -3.2237317    1.1681264   569361 
  487000    1.0389989   -3.2243863   -3.2243863   -2.0562947  0.078608642   -3.2243863    1.1680915   569361 
  488000    1.0389564   -3.2244016   -3.2244016   -2.0563577  0.072701229   -3.2244016    1.1680439   569361 
  489000    1.0398296   -3.2249907   -3.2249907   -2.0559652  0.066285125   -3.2249907    1.1690255   569361 
  490000    1.0399496   -3.2263254   -3.2263254   -2.0571651  0.082490383   -3.2263254    1.1691604   569361 
  491000    1.0385956   -3.2247125   -3.2247125   -2.0570743  0.067958313   -3.2247125    1.1676382   569361 
  492000    1.0418899   -3.2289109   -3.2289109   -2.0575691  0.091340404   -3.2289109    1.1713418   569361 
  493000    1.0402415   -3.2268925   -3.2268925   -2.0574039  0.078189876   -3.2268925    1.1694886   569361 
  494000    1.0399511   -3.2267875   -3.2267875   -2.0576254   0.05875325   -3.2267875    1.1691621   569361 
  495000    1.0398277   -3.2265345   -3.2265345   -2.0575111  0.080731366   -3.2265345    1.1690234   569361 
  496000    1.0376531   -3.2247748   -3.2247748   -2.0581962  0.083690876   -3.2247748    1.1665786   569361 
  497000    1.0413375   -3.2286425   -3.2286425   -2.0579218  0.070706455   -3.2286425    1.1707207   569361 
  498000    1.0390561    -3.226294    -3.226294   -2.0581381  0.082759512    -3.226294    1.1681559   569361 
  499000    1.0376174   -3.2248796   -3.2248796   -2.0583412   0.10237099   -3.2248796    1.1665384   569361 
  500000    1.0383013   -3.2261459   -3.2261459   -2.0588386  0.071872708   -3.2261459    1.1673073   569361 
  501000    1.0394945   -3.2274328   -3.2274328    -2.058784  0.075664874   -3.2274328    1.1686488   569361 
  502000    1.0392876   -3.2271886   -3.2271886   -2.0587725  0.062067608   -3.2271886    1.1684162   569361 
  503000    1.0381662   -3.2251483   -3.2251483   -2.0579929  0.067120002   -3.2251483    1.1671554   569361 
  504000    1.0392364   -3.2266164   -3.2266164   -2.0582578  0.078601594   -3.2266164    1.1683586   569361 
  505000     1.038527      -3.2266      -3.2266    -2.059039  0.071165922      -3.2266     1.167561   569361 
  506000    1.0393847    -3.227367    -3.227367   -2.0588417  0.081033596    -3.227367    1.1685253   569361 
  507000    1.0392391    -3.226955    -3.226955   -2.0585934  0.090218467    -3.226955    1.1683616   569361 
  508000     1.039492   -3.2271148   -3.2271148   -2.0584688  0.085743386   -3.2271148     1.168646   569361 
  509000    1.0393172   -3.2278655   -3.2278655   -2.0594161  0.088219614   -3.2278655    1.1684494   569361 
  510000    1.0395969    -3.228367    -3.228367   -2.0596031  0.079746201    -3.228367    1.1687639   569361 
  511000    1.0390594   -3.2281579   -3.2281579   -2.0599982  0.088272729   -3.2281579    1.1681596   569361 
  512000    1.0404097   -3.2294928   -3.2294928   -2.0598151  0.070094369   -3.2294928    1.1696777   569361 
  513000    1.0389827   -3.2290543   -3.2290543   -2.0609809  0.083831858   -3.2290543    1.1680734   569361 
  514000    1.0390191   -3.2292342   -3.2292342   -2.0611199  0.066068348   -3.2292342    1.1681143   569361 
  515000    1.0378887    -3.228248    -3.228248   -2.0614046  0.074698718    -3.228248    1.1668435   569361 
  516000     1.037658   -3.2277133   -3.2277133   -2.0611292  0.065854103   -3.2277133    1.1665841   569361 
  517000    1.0378568   -3.2288675   -3.2288675   -2.0620599   0.08255846   -3.2288675    1.1668076   569361 
  518000    1.0380557   -3.2293619   -3.2293619   -2.0623307  0.064577145   -3.2293619    1.1670312   569361 
  519000    1.0381748   -3.2304411   -3.2304411    -2.063276   0.08549283   -3.2304411    1.1671651   569361 
  520000    1.0415458   -3.2334568   -3.2334568   -2.0625018  0.085778353   -3.2334568     1.170955   569361 
  521000    1.0414645   -3.2336478   -3.2336478   -2.0627843  0.077451409   -3.2336478    1.1708635   569361 
  522000    1.0400692   -3.2323515   -3.2323515   -2.0630566  0.075184517   -3.2323515    1.1692949   569361 
  523000    1.0410791   -3.2339882   -3.2339882    -2.063558  0.071401391   -3.2339882    1.1704303   569361 
  524000    1.0411791   -3.2347445   -3.2347445   -2.0642018   0.07754689   -3.2347445    1.1705427   569361 
  525000     1.039482   -3.2341733   -3.2341733   -2.0655386  0.080761356   -3.2341733    1.1686347   569361 
  526000    1.0381059   -3.2324785   -3.2324785   -2.0653909   0.06551704   -3.2324785    1.1670876   569361 
  527000    1.0383945    -3.232225    -3.232225   -2.0648129  0.072732734    -3.232225    1.1674121   569361 
  528000     1.038413   -3.2321012   -3.2321012   -2.0646683  0.074260453   -3.2321012    1.1674329   569361 
  529000    1.0373039   -3.2312134   -3.2312134   -2.0650275  0.084656292   -3.2312134    1.1661859   569361 
  530000    1.0362799   -3.2306794   -3.2306794   -2.0656446  0.082026387   -3.2306794    1.1650348   569361 
  531000    1.0366156   -3.2316426   -3.2316426   -2.0662305  0.077001668   -3.2316426    1.1654122   569361 
  532000    1.0381055   -3.2339076   -3.2339076   -2.0668204  0.068361321   -3.2339076    1.1670872   569361 
  533000    1.0387261   -3.2347394   -3.2347394   -2.0669544  0.086657166   -3.2347394    1.1677849   569361 
  534000    1.0392297   -3.2358186   -3.2358186   -2.0674676  0.081394276   -3.2358186     1.168351   569361 
  535000    1.0373974   -3.2339446   -3.2339446   -2.0676534  0.075118411   -3.2339446    1.1662911   569361 
  536000    1.0369754   -3.2342826   -3.2342826    -2.068466   0.07017708   -3.2342826    1.1658167   569361 
  537000    1.0361823    -3.234575    -3.234575     -2.06965  0.073010538    -3.234575     1.164925   569361 
  538000    1.0377987   -3.2347256   -3.2347256   -2.0679833  0.075852336   -3.2347256    1.1667423   569361 
  539000    1.0384172   -3.2365264   -3.2365264   -2.0690888  0.078901798   -3.2365264    1.1674376   569361 
  540000    1.0389216   -3.2360456   -3.2360456   -2.0680408  0.077969306   -3.2360456    1.1680047   569361 
  541000    1.0391945   -3.2367563   -3.2367563   -2.0684448  0.076973498   -3.2367563    1.1683115   569361 
  542000    1.0383546   -3.2360513   -3.2360513   -2.0686841  0.085972967   -3.2360513    1.1673673   569361 
  543000    1.0376611   -3.2367768   -3.2367768   -2.0701892  0.067440483   -3.2367768    1.1665876   569361 
  544000    1.0362177   -3.2353422   -3.2353422   -2.0703774  0.065499313   -3.2353422    1.1649648   569361 
  545000    1.0369528   -3.2364799   -3.2364799   -2.0706886  0.077980416   -3.2364799    1.1657912   569361 
  546000    1.0358912   -3.2353427   -3.2353427    -2.070745  0.063883274   -3.2353427    1.1645977   569361 
  547000    1.0366062   -3.2367663   -3.2367663   -2.0713647  0.074728359   -3.2367663    1.1654016   569361 
  548000    1.0365448   -3.2377614   -3.2377614   -2.0724288  0.062858751   -3.2377614    1.1653326   569361 
  549000    1.0377071   -3.2377662   -3.2377662    -2.071127  0.071689015   -3.2377662    1.1666392   569361 
  550000    1.0384866   -3.2382618   -3.2382618   -2.0707462  0.072324158   -3.2382618    1.1675156   569361 
  551000    1.0375023   -3.2366135   -3.2366135   -2.0702045  0.075667832   -3.2366135     1.166409   569361 
  552000    1.0371302   -3.2373126   -3.2373126   -2.0713219  0.061042184   -3.2373126    1.1659907   569361 
  553000    1.0358648   -3.2364503   -3.2364503   -2.0718822  0.069618888   -3.2364503    1.1645681   569361 
  554000    1.0370366    -3.237461    -3.237461   -2.0715756  0.073713403    -3.237461    1.1658854   569361 
  555000    1.0363694   -3.2360104   -3.2360104    -2.070875  0.067071125   -3.2360104    1.1651354   569361 
  556000    1.0371544    -3.237742    -3.237742   -2.0717241  0.096252153    -3.237742    1.1660179   569361 
  557000    1.0364095   -3.2377381   -3.2377381   -2.0725576  0.094602945   -3.2377381    1.1651805   569361 
  558000    1.0353096   -3.2362874   -3.2362874   -2.0723435  0.084196932   -3.2362874    1.1639439   569361 
  559000    1.0374867   -3.2400318   -3.2400318   -2.0736403  0.094104968   -3.2400318    1.1663915   569361 
  560000    1.0366644   -3.2390654   -3.2390654   -2.0735983  0.071843667   -3.2390654    1.1654671   569361 
  561000    1.0376528   -3.2392215   -3.2392215   -2.0726432  0.094157783   -3.2392215    1.1665783   569361 
  562000    1.0383194   -3.2408138   -3.2408138   -2.0734862  0.063298423   -3.2408138    1.1673276   569361 
  563000    1.0355814   -3.2390692   -3.2390692   -2.0748197  0.069967358   -3.2390692    1.1642495   569361 
  564000    1.0356657   -3.2390623   -3.2390623   -2.0747181  0.089008801   -3.2390623    1.1643442   569361 
  565000    1.0340107   -3.2375898   -3.2375898   -2.0751062  0.076169016   -3.2375898    1.1624836   569361 
  566000    1.0367389   -3.2407348   -3.2407348   -2.0751841  0.072014385   -3.2407348    1.1655508   569361 
  567000    1.0367381   -3.2407924   -3.2407924   -2.0752426  0.094010065   -3.2407924    1.1655498   569361 
  568000    1.0371685   -3.2412972   -3.2412972   -2.0752635  0.078780367   -3.2412972    1.1660338   569361 
  569000    1.0364373    -3.240996    -3.240996   -2.0757843  0.072882001    -3.240996    1.1652117   569361 
  570000    1.0381237   -3.2427886   -3.2427886   -2.0756809  0.076539281   -3.2427886    1.1671076   569361 
  571000    1.0373841   -3.2423261   -3.2423261     -2.07605  0.079637226   -3.2423261    1.1662761   569361 
  572000    1.0374801   -3.2432719   -3.2432719   -2.0768879   0.08322276   -3.2432719     1.166384   569361 
  573000    1.0338373   -3.2395977   -3.2395977   -2.0773091  0.055728396   -3.2395977    1.1622887   569361 
  574000    1.0345795   -3.2405675   -3.2405675   -2.0774443  0.058359682   -3.2405675    1.1631231   569361 
  575000    1.0385186   -3.2460074   -3.2460074   -2.0784558  0.064534688   -3.2460074    1.1675516   569361 
  576000    1.0360013   -3.2437904   -3.2437904   -2.0790689  0.083416516   -3.2437904    1.1647215   569361 
  577000     1.034397   -3.2424712   -3.2424712   -2.0795533  0.063765223   -3.2424712    1.1629179   569361 
  578000    1.0367374   -3.2453351   -3.2453351    -2.079786  0.072504843   -3.2453351    1.1655491   569361 
  579000    1.0363015   -3.2450133   -3.2450133   -2.0799542  0.067358798   -3.2450133    1.1650591   569361 
  580000     1.035272   -3.2448249   -3.2448249   -2.0809232  0.082664718   -3.2448249    1.1639017   569361 
  581000    1.0361315   -3.2442055   -3.2442055   -2.0793375  0.063572436   -3.2442055     1.164868   569361 
  582000    1.0356518   -3.2443279   -3.2443279   -2.0799993   0.07220189   -3.2443279    1.1643286   569361 
  583000     1.036066   -3.2438846   -3.2438846   -2.0790904  0.080065547   -3.2438846    1.1647942   569361 
  584000    1.0351281   -3.2431033   -3.2431033   -2.0793634  0.079387804   -3.2431033    1.1637399   569361 
  585000    1.0359008    -3.243538    -3.243538   -2.0789294  0.060589104    -3.243538    1.1646086   569361 
  586000    1.0335829   -3.2414295   -3.2414295   -2.0794268  0.079550051   -3.2414295    1.1620027   569361 
  587000    1.0346507   -3.2427158   -3.2427158   -2.0795126  0.070838839   -3.2427158    1.1632031   569361 
  588000    1.0368319   -3.2447296   -3.2447296   -2.0790743  0.074047466   -3.2447296    1.1656553   569361 
  589000    1.0347077   -3.2420606   -3.2420606   -2.0787934  0.077233814   -3.2420606    1.1632672   569361 
  590000    1.0352181   -3.2429341   -3.2429341   -2.0790931  0.087173632   -3.2429341     1.163841   569361 
  591000    1.0364134   -3.2440253   -3.2440253   -2.0788405  0.060966627   -3.2440253    1.1651848   569361 
  592000    1.0363017   -3.2438631   -3.2438631   -2.0788038  0.076120614   -3.2438631    1.1650592   569361 
  593000    1.0353067   -3.2435355   -3.2435355   -2.0795948  0.077023709   -3.2435355    1.1639407   569361 
  594000    1.0369925   -3.2460892   -3.2460892   -2.0802533  0.071768897   -3.2460892    1.1658359   569361 
  595000    1.0339987    -3.242362    -3.242362   -2.0798919  0.070816706    -3.242362    1.1624701   569361 
  596000     1.034958    -3.243559    -3.243559   -2.0800104  0.072449255    -3.243559    1.1635486   569361 
  597000    1.0366794    -3.245588    -3.245588   -2.0801041   0.06957732    -3.245588    1.1654839   569361 
  598000     1.034358   -3.2434205   -3.2434205   -2.0805465  0.075317662   -3.2434205    1.1628741   569361 
  599000    1.0364209   -3.2447186   -3.2447186   -2.0795253  0.067111802   -3.2447186    1.1651933   569361 
  600000    1.0374209   -3.2463887   -3.2463887   -2.0800712  0.082851524   -3.2463887    1.1663175   569361 
  601000    1.0342671   -3.2449359   -3.2449359    -2.082164  0.079619656   -3.2449359    1.1627719   569361 
  602000    1.0365124   -3.2480322   -3.2480322   -2.0827361  0.083660869   -3.2480322    1.1652961   569361 
  603000    1.0355377    -3.247208    -3.247208   -2.0830076  0.080370115    -3.247208    1.1642004   569361 
  604000    1.0361857    -3.248153    -3.248153   -2.0832242  0.080135686    -3.248153    1.1649288   569361 
  605000    1.0339089   -3.2457719   -3.2457719   -2.0834028  0.068880388   -3.2457719    1.1623691   569361 
  606000    1.0344969   -3.2475848   -3.2475848   -2.0845546  0.076208101   -3.2475848    1.1630302   569361 
  607000    1.0339513   -3.2466166   -3.2466166   -2.0841997  0.095380573   -3.2466166    1.1624169   569361 
  608000    1.0342391   -3.2471521   -3.2471521   -2.0844117  0.078134892   -3.2471521    1.1627404   569361 
  609000    1.0329979   -3.2453379   -3.2453379   -2.0839929  0.081453476   -3.2453379     1.161345   569361 
  610000    1.0344654   -3.2474626   -3.2474626   -2.0844678  0.078744956   -3.2474626    1.1629949   569361 
  611000    1.0347326   -3.2473153   -3.2473153   -2.0840201  0.072546439   -3.2473153    1.1632952   569361 
  612000    1.0331058   -3.2461279   -3.2461279   -2.0846616  0.066818922   -3.2461279    1.1614663   569361 
  613000     1.033235   -3.2466128   -3.2466128   -2.0850012  0.073287071   -3.2466128    1.1616115   569361 
  614000    1.0327354   -3.2467197   -3.2467197   -2.0856698  0.077835181   -3.2467197    1.1610499   569361 
  615000    1.0336898   -3.2475954   -3.2475954   -2.0854726  0.064228757   -3.2475954    1.1621228   569361 
  616000    1.0328178   -3.2472033   -3.2472033   -2.0860608  0.094735135   -3.2472033    1.1611425   569361 
  617000    1.0356263   -3.2497781   -3.2497781   -2.0854782  0.061879631   -3.2497781    1.1642999   569361 
  618000    1.0337087   -3.2482931   -3.2482931    -2.086149  0.070316006   -3.2482931    1.1621441   569361 
  619000    1.0330847    -3.247784    -3.247784   -2.0863414  0.068881157    -3.247784    1.1614425   569361 
  620000    1.0331401   -3.2475994   -3.2475994   -2.0860946  0.071996641   -3.2475994    1.1615048   569361 
  621000    1.0356059   -3.2505487   -3.2505487   -2.0862717  0.066294122   -3.2505487     1.164277   569361 
  622000    1.0333793   -3.2476408   -3.2476408   -2.0858671  0.069920696   -3.2476408    1.1617738   569361 
  623000    1.0357028   -3.2501424   -3.2501424   -2.0857565    0.0678048   -3.2501424    1.1643859   569361 
  624000    1.0346397   -3.2499929   -3.2499929   -2.0868021  0.068192766   -3.2499929    1.1631908   569361 
  625000      1.03557   -3.2518486   -3.2518486   -2.0876119  0.081594922   -3.2518486    1.1642367   569361 
  626000    1.0321282   -3.2480984   -3.2480984   -2.0877312  0.065037346   -3.2480984    1.1603672   569361 
  627000     1.032695   -3.2497581   -3.2497581   -2.0887537  0.070398954   -3.2497581    1.1610044   569361 
  628000    1.0301068   -3.2476097   -3.2476097   -2.0895151  0.068523674   -3.2476097    1.1580946   569361 
  629000    1.0316821   -3.2501031   -3.2501031   -2.0902375  0.067646813   -3.2501031    1.1598656   569361 
  630000    1.0328328    -3.250873    -3.250873   -2.0897137  0.067838862    -3.250873    1.1611593   569361 
  631000    1.0329863   -3.2520913   -3.2520913   -2.0907594  0.069449782   -3.2520913    1.1613319   569361 
  632000    1.0328438   -3.2511798   -3.2511798   -2.0900081  0.077432557   -3.2511798    1.1611717   569361 
  633000    1.0339123   -3.2526405   -3.2526405   -2.0902675  0.080903583   -3.2526405     1.162373   569361 
  634000    1.0331775   -3.2523756   -3.2523756   -2.0908287  0.074853556   -3.2523756    1.1615469   569361 
  635000    1.0340516   -3.2521181   -3.2521181   -2.0895885  0.055520979   -3.2521181    1.1625296   569361 
  636000    1.0331384   -3.2511172   -3.2511172   -2.0896142  0.091291713   -3.2511172    1.1615029   569361 
  637000    1.0317451   -3.2511503   -3.2511503   -2.0912138  0.079572978   -3.2511503    1.1599366   569361 
  638000    1.0311892   -3.2509735   -3.2509735   -2.0916619  0.062779002   -3.2509735    1.1593115   569361 
  639000    1.0308639    -3.250082    -3.250082   -2.0911362  0.076848728    -3.250082    1.1589458   569361 
  640000    1.0305584   -3.2495048   -3.2495048   -2.0909024  0.062276412   -3.2495048    1.1586024   569361 
  641000    1.0319381   -3.2509688   -3.2509688   -2.0908153  0.070559195   -3.2509688    1.1601535   569361 
  642000    1.0313613   -3.2503871   -3.2503871   -2.0908821  0.082467236   -3.2503871     1.159505   569361 
  643000    1.0315744   -3.2511396   -3.2511396    -2.091395  0.069699592   -3.2511396    1.1597446   569361 
  644000    1.0328868   -3.2527633   -3.2527633   -2.0915432  0.071426837   -3.2527633      1.16122   569361 
  645000    1.0320337    -3.251475    -3.251475   -2.0912141  0.069960388    -3.251475     1.160261   569361 
  646000    1.0315299   -3.2516556   -3.2516556    -2.091961  0.065048508   -3.2516556    1.1596946   569361 
  647000    1.0321383   -3.2523465   -3.2523465   -2.0919679  0.057803925   -3.2523465    1.1603786   569361 
  648000    1.0327071   -3.2520071   -3.2520071   -2.0909891  0.065534384   -3.2520071     1.161018   569361 
[...]
 3613000    1.0109239   -3.3999564   -3.3999564    -2.263428  0.068261336   -3.3999564    1.1365284   569361 
 3614000     1.011555   -3.4020717   -3.4020717   -2.2648339  0.055525724   -3.4020717    1.1372378   569361 
 3615000    1.0094513   -3.3985022   -3.3985022   -2.2636294  0.075036834   -3.3985022    1.1348728   569361 
 3616000    1.0117975   -3.4011581   -3.4011581   -2.2636476  0.050264701   -3.4011581    1.1375105   569361 
 3617000    1.0096628   -3.3981632   -3.3981632   -2.2630527  0.081543476   -3.3981632    1.1351105   569361 
 3618000    1.0107516   -3.3992901   -3.3992901   -2.2629554  0.090726285   -3.3992901    1.1363347   569361 
 3619000    1.0113305    -3.399791    -3.399791   -2.2628056  0.064501577    -3.399791    1.1369854   569361 
 3620000    1.0121621   -3.4006311   -3.4006311   -2.2627107  0.079060207   -3.4006311    1.1379204   569361 
 3621000     1.011045   -3.3996368   -3.3996368   -2.2629723  0.073282689   -3.3996368    1.1366645   569361 
 3622000    1.0113469   -3.4000249   -3.4000249   -2.2630211   0.05583631   -3.4000249    1.1370039   569361 
 3623000    1.0118959   -3.4010602   -3.4010602   -2.2634391  0.069311675   -3.4010602    1.1376212   569361 
 3624000    1.0127885   -3.4020635   -3.4020635    -2.263439  0.064616516   -3.4020635    1.1386246   569361 
 3625000    1.0101769   -3.3983501   -3.3983501   -2.2626616  0.078053822   -3.3983501    1.1356886   569361 
 3626000     1.012023   -3.3999146   -3.3999146   -2.2621506  0.060071753   -3.3999146     1.137764   569361 
 3627000    1.0106518   -3.3987542   -3.3987542   -2.2625317   0.07938997   -3.3987542    1.1362225   569361 
 3628000    1.0103723   -3.3975716   -3.3975716   -2.2616634  0.084765629   -3.3975716    1.1359082   569361 
 3629000    1.0098006   -3.3968773   -3.3968773   -2.2616118  0.064518386   -3.3968773    1.1352655   569361 
 3630000    1.0122109   -3.3992376   -3.3992376   -2.2612623  0.042229171   -3.3992376    1.1379753   569361 
 3631000    1.0104465   -3.3973705   -3.3973705   -2.2613789  0.055442539   -3.3973705    1.1359916   569361 
 3632000    1.0096413   -3.3973272   -3.3973272   -2.2622408   0.05751171   -3.3973272    1.1350864   569361 
 3633000    1.0091058   -3.3976183   -3.3976183    -2.263134  0.062458242   -3.3976183    1.1344843   569361 
 3634000    1.0078949   -3.3964386   -3.3964386   -2.2633156  0.063130416   -3.3964386     1.133123   569361 
 3635000    1.0092021   -3.3982041   -3.3982041   -2.2636115  0.074958407   -3.3982041    1.1345926   569361 
 3636000    1.0082747   -3.3970279   -3.3970279    -2.263478  0.061957755   -3.3970279    1.1335499   569361 
 3637000    1.0083782   -3.3977353   -3.3977353   -2.2640689  0.076525525   -3.3977353    1.1336664   569361 
 3638000    1.0078019   -3.3965474   -3.3965474   -2.2635289  0.055646184   -3.3965474    1.1330185   569361 
 3639000    1.0095318   -3.3985038   -3.3985038   -2.2635405   0.06967665   -3.3985038    1.1349633   569361 
 3640000    1.0094522   -3.3985041   -3.3985041   -2.2636302  0.048889762   -3.3985041    1.1348738   569361 
 3641000    1.0090594   -3.3978045   -3.3978045   -2.2633722  0.057123199   -3.3978045    1.1344322   569361 
 3642000    1.0095565   -3.3986341   -3.3986341   -2.2636431  0.064060634   -3.3986341     1.134991   569361 
 3643000     1.008469   -3.3980846   -3.3980846   -2.2643162  0.072744941   -3.3980846    1.1337684   569361 
 3644000    1.0086206   -3.3979063   -3.3979063   -2.2639674  0.088968339   -3.3979063    1.1339389   569361 
 3645000    1.0096629   -3.3991835   -3.3991835   -2.2640728   0.07328574   -3.3991835    1.1351107   569361 
 3646000    1.0107251   -3.3998622   -3.3998622   -2.2635573  0.080333816   -3.3998622    1.1363049   569361 
 3647000    1.0093857   -3.3987569   -3.3987569   -2.2639579  0.063364743   -3.3987569     1.134799   569361 
 3648000    1.0096702   -3.3997709   -3.3997709    -2.264652  0.060385318   -3.3997709    1.1351189   569361 
 3649000    1.0100487   -3.3998065   -3.3998065   -2.2642621  0.076500133   -3.3998065    1.1355444   569361 
 3650000    1.0102556   -3.4012788   -3.4012788   -2.2655018  0.065205102   -3.4012788     1.135777   569361 
 3651000    1.0094609   -3.4002378   -3.4002378   -2.2653543  0.059516861   -3.4002378    1.1348835   569361 
 3652000    1.0107326   -3.4013998   -3.4013998   -2.2650866   0.06517745   -3.4013998    1.1363132   569361 
 3653000    1.0085594   -3.3994875   -3.3994875   -2.2656175  0.091721142   -3.3994875    1.1338701   569361 
 3654000    1.0107027   -3.4017447   -3.4017447    -2.265465  0.058049293   -3.4017447    1.1362796   569361 
 3655000     1.009468   -3.4002065   -3.4002065    -2.265315   0.05893226   -3.4002065    1.1348915   569361 
 3656000    1.0108256    -3.401624    -3.401624   -2.2652062  0.090291384    -3.401624    1.1364179   569361 
 3657000    1.0119264   -3.4029369   -3.4029369   -2.2652815  0.061283875   -3.4029369    1.1376554   569361 
 3658000    1.0110936   -3.4017742   -3.4017742   -2.2650551  0.075747447   -3.4017742    1.1367191   569361 
 3659000    1.0113543   -3.4025651   -3.4025651   -2.2655529  0.069339755   -3.4025651    1.1370122   569361 
 3660000    1.0115576   -3.4029185   -3.4029185   -2.2656778  0.059422776   -3.4029185    1.1372408   569361 
 3661000    1.0104618   -3.4010418   -3.4010418    -2.265033  0.070162891   -3.4010418    1.1360088   569361 
 3662000    1.0081456   -3.3992769   -3.3992769    -2.265872  0.060533105   -3.3992769    1.1334049   569361 
 3663000    1.0081924   -3.3990367   -3.3990367   -2.2655792  0.056815331   -3.3990367    1.1334575   569361 
 3664000    1.0079099   -3.3984013   -3.3984013   -2.2652614  0.076069195   -3.3984013    1.1331399   569361 
 3665000    1.0098541    -3.400628    -3.400628   -2.2653024   0.05196834    -3.400628    1.1353256   569361 
 3666000    1.0084665   -3.3988467   -3.3988467   -2.2650811  0.068849963   -3.3988467    1.1337656   569361 
 3667000    1.0092346   -3.3999844   -3.3999844   -2.2653552  0.062633942   -3.3999844    1.1346292   569361 
 3668000    1.0077055   -3.3978486   -3.3978486   -2.2649384  0.076123595   -3.3978486    1.1329101   569361 
 3669000    1.0092963   -3.3993182   -3.3993182   -2.2646196  0.067766101   -3.3993182    1.1346986   569361 
 3670000    1.0078871   -3.3983388   -3.3983388   -2.2652246  0.071585048   -3.3983388    1.1331142   569361 
 3671000    1.0081585   -3.3984669   -3.3984669   -2.2650476  0.066136295   -3.3984669    1.1334193   569361 
 3672000    1.0094775   -3.3995316   -3.3995316   -2.2646294  0.087159733   -3.3995316    1.1349022   569361 
 3673000    1.0083687   -3.3968957   -3.3968957     -2.26324  0.075409569   -3.3968957    1.1336556   569361 
 3674000    1.0080817   -3.3980895   -3.3980895   -2.2647564  0.059870771   -3.3980895     1.133333   569361 
 3675000    1.0094752   -3.3993429   -3.3993429   -2.2644433  0.063053084   -3.3993429    1.1348996   569361 
 3676000     1.010345   -3.3994642   -3.3994642   -2.2635867  0.053168352   -3.3994642    1.1358775   569361 
 3677000    1.0092545   -3.3979043   -3.3979043   -2.2632528  0.064895638   -3.3979043    1.1346515   569361 
 3678000    1.0098022    -3.398094    -3.398094   -2.2628268   0.06949129    -3.398094    1.1352673   569361 
 3679000    1.0100179   -3.3990496   -3.3990496   -2.2635398  0.065948335   -3.3990496    1.1355098   569361 
 3680000    1.0094454   -3.3988196   -3.3988196   -2.2639535  0.076034275   -3.3988196    1.1348661   569361 
 3681000    1.0107427    -3.399723    -3.399723   -2.2633983  0.061271984    -3.399723    1.1363247   569361 
 3682000    1.0118619   -3.4019853   -3.4019853   -2.2644024  0.066196568   -3.4019853    1.1375829   569361 
 3683000    1.0106971   -3.4011791   -3.4011791   -2.2649057  0.060826617   -3.4011791    1.1362734   569361 
 3684000    1.0088774   -3.3996131   -3.3996131   -2.2653855  0.094666732   -3.3996131    1.1342276   569361 
 3685000    1.0074285   -3.3985243   -3.3985243   -2.2659256  0.063616342   -3.3985243    1.1325987   569361 
 3686000    1.0101015   -3.4015386   -3.4015386   -2.2659348   0.06287358   -3.4015386    1.1356038   569361 
 3687000    1.0098058   -3.4016385   -3.4016385   -2.2663672  0.064497232   -3.4016385    1.1352713   569361 
 3688000    1.0117342   -3.4035238   -3.4035238   -2.2660845  0.060631422   -3.4035238    1.1374393   569361 
 3689000    1.0108118   -3.4028363   -3.4028363   -2.2664339  0.058619072   -3.4028363    1.1364023   569361 
 3690000    1.0105229   -3.4020395   -3.4020395    -2.265962  0.067514499   -3.4020395    1.1360775   569361 
 3691000     1.009461   -3.4017248   -3.4017248   -2.2668411  0.066238622   -3.4017248    1.1348837   569361 
 3692000    1.0098436   -3.4019828   -3.4019828    -2.266669  0.072605647   -3.4019828    1.1353138   569361 
 3693000    1.0091914   -3.4014866   -3.4014866    -2.266906  0.086116166   -3.4014866    1.1345806   569361 
 3694000     1.010129   -3.4024219   -3.4024219   -2.2667872  0.062324931   -3.4024219    1.1356347   569361 
 3695000    1.0083009   -3.4002297   -3.4002297   -2.2666503  0.079259147   -3.4002297    1.1335794   569361 
 3696000    1.0115397    -3.403837    -3.403837   -2.2666163  0.066620206    -3.403837    1.1372206   569361 
 3697000    1.0092833   -3.4030095   -3.4030095   -2.2683256  0.067342222   -3.4030095    1.1346839   569361 
 3698000    1.0090606   -3.4020316   -3.4020316    -2.267598  0.060487285   -3.4020316    1.1344335   569361 
 3699000    1.0082142    -3.402022    -3.402022   -2.2685401  0.066817959    -3.402022     1.133482   569361 
 3700000    1.0097358    -3.403174    -3.403174   -2.2679814  0.077372197    -3.403174    1.1351926   569361 
 3701000    1.0093871   -3.4030455   -3.4030455   -2.2682449  0.066097907   -3.4030455    1.1348006   569361 
 3702000    1.0088085    -3.402551    -3.402551   -2.2684009  0.062858519    -3.402551    1.1341501   569361 
 3703000    1.0084326   -3.4016683   -3.4016683   -2.2679407  0.076791426   -3.4016683    1.1337276   569361 
 3704000    1.0100236   -3.4042056   -3.4042056   -2.2686894  0.073924878   -3.4042056    1.1355162   569361 
 3705000    1.0110355   -3.4041371   -3.4041371   -2.2674832  0.078867354   -3.4041371    1.1366539   569361 
 3706000     1.010573   -3.4037085   -3.4037085   -2.2675747  0.072258271   -3.4037085    1.1361338   569361 
 3707000    1.0110676   -3.4045853   -3.4045853   -2.2678954  0.080514898   -3.4045853    1.1366899   569361 
 3708000    1.0106817   -3.4038996   -3.4038996   -2.2676436  0.067324735   -3.4038996    1.1362561   569361 
 3709000    1.0106873   -3.4033506   -3.4033506   -2.2670883  0.075961446   -3.4033506    1.1362623   569361 
 3710000    1.0109872   -3.4040657   -3.4040657   -2.2674662  0.065540606   -3.4040657    1.1365995   569361 
 3711000    1.0107646   -3.4041309   -3.4041309   -2.2677817  0.067030937   -3.4041309    1.1363492   569361 
 3712000    1.0105885   -3.4038065   -3.4038065   -2.2676553  0.052355126   -3.4038065    1.1361512   569361 
 3713000    1.0092063   -3.4019185   -3.4019185   -2.2673212  0.079948265   -3.4019185    1.1345973   569361 
 3714000    1.0083281   -3.4017507   -3.4017507   -2.2681407  0.073426621   -3.4017507      1.13361   569361 
 3715000    1.0084172     -3.40156     -3.40156   -2.2678499  0.082863989     -3.40156    1.1337102   569361 
 3716000    1.0104553   -3.4030738   -3.4030738   -2.2670722  0.066710896   -3.4030738    1.1360015   569361 
 3717000    1.0104121   -3.4029418   -3.4029418   -2.2669888  0.058109575   -3.4029418     1.135953   569361 
 3718000    1.0096815   -3.4011678   -3.4011678   -2.2660362  0.058514572   -3.4011678    1.1351316   569361 
 3719000    1.0101729   -3.4022649   -3.4022649   -2.2665808  0.066165035   -3.4022649    1.1356841   569361 
 3720000    1.0076218   -3.4003291   -3.4003291   -2.2675131  0.070461724   -3.4003291    1.1328159   569361 
 3721000     1.007736   -3.4002631   -3.4002631   -2.2673188  0.056850744   -3.4002631    1.1329443   569361 
 3722000     1.008794    -3.401239    -3.401239   -2.2671052   0.07500882    -3.401239    1.1341338   569361 
 3723000    1.0095545   -3.4026439   -3.4026439   -2.2676551  0.068500451   -3.4026439    1.1349888   569361 
 3724000    1.0088585   -3.4025466   -3.4025466   -2.2683402  0.068416949   -3.4025466    1.1342064   569361 
 3725000    1.0074771   -3.4008885   -3.4008885   -2.2682352  0.066111157   -3.4008885    1.1326533   569361 
 3726000    1.0092256   -3.4034363   -3.4034363   -2.2688172  0.074315735   -3.4034363     1.134619   569361 
 3727000    1.0093295   -3.4030711   -3.4030711   -2.2683352  0.066029442   -3.4030711    1.1347359   569361 
 3728000    1.0086935   -3.4035157   -3.4035157   -2.2694949  0.058840883   -3.4035157    1.1340208   569361 
 3729000    1.0106988    -3.405369    -3.405369   -2.2690937  0.057552658    -3.405369    1.1362753   569361 
 3730000    1.0089485   -3.4040709   -3.4040709   -2.2697633  0.061220093   -3.4040709    1.1343075   569361 
 3731000    1.0089236   -3.4039998   -3.4039998   -2.2697203  0.055970441   -3.4039998    1.1342795   569361 
 3732000    1.0076839   -3.4025872   -3.4025872   -2.2697014  0.077443991   -3.4025872    1.1328858   569361 
 3733000     1.008054   -3.4028426   -3.4028426   -2.2695408  0.087805847   -3.4028426    1.1333018   569361 
 3734000    1.0077609   -3.4022651   -3.4022651   -2.2692927  0.068189101   -3.4022651    1.1329724   569361 
 3735000     1.008874   -3.4033395   -3.4033395   -2.2691158  0.070947562   -3.4033395    1.1342237   569361 
 3736000    1.0098291   -3.4035543   -3.4035543   -2.2682568  0.093667267   -3.4035543    1.1352975   569361 
 3737000    1.0106397   -3.4044251   -3.4044251   -2.2682162  0.077887761   -3.4044251    1.1362088   569361 
 3738000    1.0105955   -3.4043023   -3.4043023   -2.2681431  0.069512479   -3.4043023    1.1361592   569361 
 3739000     1.010985   -3.4053602   -3.4053602   -2.2687631  0.085487888   -3.4053602    1.1365971   569361 
 3740000    1.0099684    -3.405043    -3.405043   -2.2695889  0.087144458    -3.405043    1.1354541   569361 
 3741000    1.0090009   -3.4037422   -3.4037422   -2.2693758  0.074964569   -3.4037422    1.1343664   569361 
 3742000    1.0103576   -3.4054672   -3.4054672   -2.2695755  0.078039629   -3.4054672    1.1358917   569361 
 3743000    1.0111617   -3.4059497   -3.4059497    -2.269154  0.065735857   -3.4059497    1.1367957   569361 
 3744000    1.0104734    -3.404714    -3.404714   -2.2686921  0.068314638    -3.404714    1.1360219   569361 
 3745000    1.0119127   -3.4063889   -3.4063889    -2.268749  0.071436964   -3.4063889      1.13764   569361 
 3746000     1.010709   -3.4052167   -3.4052167   -2.2689299   0.06332216   -3.4052167    1.1362868   569361 
 3747000    1.0108757   -3.4051934   -3.4051934   -2.2687192  0.070388108   -3.4051934    1.1364742   569361 
 3748000    1.0111061   -3.4046236   -3.4046236   -2.2678904  0.064394289   -3.4046236    1.1367331   569361 
 3749000    1.0108351   -3.4036119   -3.4036119   -2.2671834  0.060021779   -3.4036119    1.1364285   569361 
 3750000    1.0102102   -3.4033396   -3.4033396   -2.2676136  0.069757844   -3.4033396     1.135726   569361 
 3751000    1.0109504   -3.4038465   -3.4038465   -2.2672884  0.069591658   -3.4038465    1.1365581   569361 
 3752000    1.0109684   -3.4043891   -3.4043891   -2.2678108  0.065423976   -3.4043891    1.1365783   569361 
 3753000    1.0104266    -3.403989    -3.403989   -2.2680198  0.062196312    -3.403989    1.1359692   569361 
 3754000    1.0109382   -3.4040302   -3.4040302   -2.2674858  0.073191989   -3.4040302    1.1365444   569361 
 3755000    1.0095262   -3.4026962   -3.4026962   -2.2677392  0.061106521   -3.4026962     1.134957   569361 
 3756000    1.0081017   -3.4012339   -3.4012339   -2.2678783  0.063132338   -3.4012339    1.1333555   569361 
 3757000    1.0079758   -3.4011672   -3.4011672   -2.2679533  0.064240755   -3.4011672     1.133214   569361 
 3758000    1.0089523   -3.4018413   -3.4018413   -2.2675295  0.083631248   -3.4018413    1.1343118   569361 
 3759000    1.0092718   -3.4024403   -3.4024403   -2.2677693  0.052314117   -3.4024403    1.1346709   569361 
 3760000    1.0089784   -3.4017042   -3.4017042   -2.2673631  0.069502342   -3.4017042    1.1343411   569361 
 3761000      1.00903   -3.4013644   -3.4013644   -2.2669652  0.062935708   -3.4013644    1.1343991   569361 
 3762000    1.0087065   -3.4015028   -3.4015028   -2.2674673  0.074966973   -3.4015028    1.1340355   569361 
 3763000    1.0081067   -3.4007554   -3.4007554   -2.2673943  0.069211238   -3.4007554    1.1333611   569361 
 3764000    1.0100117   -3.4022494   -3.4022494   -2.2667466  0.068589658   -3.4022494    1.1355028   569361 
 3765000    1.0085156   -3.4010293   -3.4010293   -2.2672085   0.08200976   -3.4010293    1.1338208   569361 
 3766000    1.0094216   -3.4014974   -3.4014974    -2.266658  0.074143015   -3.4014974    1.1348394   569361 
 3767000    1.0107499   -3.4038351   -3.4038351   -2.2675024  0.078061613   -3.4038351    1.1363327   569361 
 3768000    1.0099682   -3.4030256   -3.4030256   -2.2675717    0.0724518   -3.4030256    1.1354539   569361 
 3769000    1.0095641   -3.4022906   -3.4022906    -2.267291   0.05886626   -3.4022906    1.1349996   569361 
 3770000    1.0092792   -3.4022427   -3.4022427   -2.2675634  0.070489893   -3.4022427    1.1346793   569361 
 3771000    1.0097734   -3.4023529   -3.4023529    -2.267118  0.070835605   -3.4023529    1.1352349   569361 
 3772000    1.0094396   -3.4014212   -3.4014212   -2.2665617  0.059753835   -3.4014212    1.1348596   569361 
 3773000    1.0083965   -3.4008237   -3.4008237   -2.2671367  0.086142869   -3.4008237     1.133687   569361 
 3774000    1.0107228   -3.4038605   -3.4038605   -2.2675582  0.068322382   -3.4038605    1.1363022   569361 
 3775000    1.0100527    -3.402668    -3.402668   -2.2671191  0.078049743    -3.402668    1.1355489   569361 
 3776000    1.0100774   -3.4022362   -3.4022362   -2.2666595  0.083859853   -3.4022362    1.1355767   569361 
 3777000    1.0119924   -3.4037892   -3.4037892   -2.2660595  0.063283884   -3.4037892    1.1377297   569361 
 3778000    1.0099977   -3.4023247   -3.4023247   -2.2668376  0.059850529   -3.4023247    1.1354871   569361 
 3779000    1.0111164   -3.4038557   -3.4038557   -2.2671109  0.067310625   -3.4038557    1.1367448   569361 
 3780000    1.0108806   -3.4039706   -3.4039706    -2.267491  0.072937466   -3.4039706    1.1364796   569361 
 3781000    1.0097559   -3.4033361   -3.4033361   -2.2681209  0.060489702   -3.4033361    1.1352153   569361 
 3782000     1.009838   -3.4043642   -3.4043642   -2.2690568  0.047785952   -3.4043642    1.1353075   569361 
 3783000    1.0086754   -3.4036372   -3.4036372   -2.2696367  0.072486576   -3.4036372    1.1340005   569361 
 3784000    1.0086258   -3.4039287   -3.4039287    -2.269984   0.07026616   -3.4039287    1.1339447   569361 
 3785000    1.0101493   -3.4048774   -3.4048774     -2.26922  0.069052587   -3.4048774    1.1356575   569361 
 3786000    1.0092949   -3.4059502   -3.4059502   -2.2712532  0.067961578   -3.4059502     1.134697   569361 
 3787000    1.0085762   -3.4047796   -3.4047796   -2.2708907  0.078739935   -3.4047796    1.1338889   569361 
 3788000    1.0089933   -3.4044398   -3.4044398   -2.2700819  0.067108574   -3.4044398    1.1343579   569361 
 3789000    1.0119847   -3.4076395   -3.4076395   -2.2699185  0.062457898   -3.4076395     1.137721   569361 
 3790000    1.0101035    -3.406228    -3.406228    -2.270622  0.057676376    -3.406228     1.135606   569361 
 3791000    1.0115971   -3.4069986   -3.4069986   -2.2697134  0.085553969   -3.4069986    1.1372852   569361 
 3792000    1.0093464   -3.4045506   -3.4045506   -2.2697957  0.066594237   -3.4045506    1.1347549   569361 
 3793000    1.0091765    -3.404006    -3.404006   -2.2694422  0.088098539    -3.404006    1.1345639   569361 
 3794000    1.0118995   -3.4069898   -3.4069898   -