LAMMPS (29 Oct 2020)
  using 1 OpenMP thread(s) per MPI task
Created orthogonal box = (0.0000000 0.0000000 0.0000000) to (80.000000 80.000000 80.000000)
  2 by 4 by 4 MPI processor grid
Lattice spacing in x,y,z = 1.0000000 1.0000000 1.0000000
Created 512000 atoms
  create_atoms CPU = 0.113 seconds
512000 atoms in group solvent
Reading data file ...
  orthogonal box = (0.0000000 0.0000000 0.0000000) to (80.000000 80.000000 160.00000)
  2 by 2 by 8 MPI processor grid
Finding 1-2 1-3 1-4 neighbors ...
  special bond factors lj:    0.0      0.0      0.0     
  special bond factors coul:  0.0      0.0      0.0     
     0 = max # of 1-2 neighbors
     0 = max # of 1-3 neighbors
     0 = max # of 1-4 neighbors
     1 = max # of special neighbors
  special bonds CPU = 0.312 seconds
  read_data CPU = 0.331 seconds
Balancing ...
Neighbor list info ...
  update every 1 steps, delay 10 steps, check yes
  max neighbors/atom: 2000, page size: 100000
  master list distance cutoff = 2.9
  ghost atom cutoff = 2.9
  binsize = 1.45, bins = 56 56 111
  1 neighbor lists, perpetual/occasional/extra = 1 0 0
  (1) pair lj/cut/opt, perpetual
      attributes: half, newton on
      pair build: half/bin/newton
      stencil: half/bin/3d/newton
      bin: standard
 rebalancing time: 0.037 seconds
  iteration count = 5
  initial/final maximal load/proc = 32000.000 19200.000
  initial/final imbalance factor  = 2.0000000 1.2000000
  x cuts: 0.0000000 0.5 1.0000000
  y cuts: 0.0000000 0.5 1.0000000
  z cuts: 0.0000000 0.0625 0.12890625 0.1875 0.2578125 0.30859375 0.38671875 0.4375 1.0000000
WARNING: Ignoring 'compress yes' for molecular system (src/delete_atoms.cpp:125)
Deleted 19200 atoms, new total = 492800
WARNING: Ignoring 'compress yes' for molecular system (src/delete_atoms.cpp:125)
Deleted 0 atoms, new total = 492800
dynamic group thermo defined
New timer settings: style=full  mode=nosync  timeout=off
Setting up Verlet run ...
  Unit style    : lj
  Current step  : 0
  Time step     : 0.0025
Per MPI rank memory allocation (min/avg/max) = 21.45 | 22.19 | 22.73 Mbytes
Step Temp E_pair E_vdwl TotEng Press PotEng KinEng Volume 
       0   0.49998514   -3.2974116   -3.2974116   -2.5474355    8.3319627   -3.2974116   0.74997619      1024000 
    1000    1.4275297   -4.8136518   -4.8136518   -2.6723616     3.687284   -4.8136518    2.1412903      1024000 
    2000    1.3665749   -4.8622164   -4.8622164   -2.8123583    2.4719028   -4.8622164    2.0498582      1024000 
    3000    1.2649446   -4.8378406   -4.8378406   -2.9404276    1.6273924   -4.8378406     1.897413      1024000 
    4000    1.2134403   -4.8489836   -4.8489836   -3.0288268    0.7208543   -4.8489836    1.8201568      1024000 
    5000    1.1440608    -4.788353    -4.788353   -3.0722653  0.082814539    -4.788353    1.7160877      1024000 
    6000    1.0639222   -4.6820759   -4.6820759   -3.0861958  -0.25113826   -4.6820759    1.5958801      1024000 
    7000    1.0042393   -4.5944398   -4.5944398   -3.0880839  -0.35213157   -4.5944398    1.5063558      1024000 
    8000   0.99027015   -4.5729504   -4.5729504   -3.0875482   -0.2436952   -4.5729504    1.4854022      1024000 
    9000    1.0043672   -4.5988214   -4.5988214   -3.0922737 -0.095055497   -4.5988214    1.5065477      1024000 
   10000    1.0119145    -4.619637    -4.619637   -3.1017684 -0.007092225    -4.619637    1.5178686      1024000 
   11000    1.0097775   -4.6275357   -4.6275357   -3.1128725  0.022089968   -4.6275357    1.5146632      1024000 
   12000     1.006732   -4.6331624   -4.6331624   -3.1230674  0.023833043   -4.6331624    1.5100949      1024000 
   13000    1.0075148   -4.6432387   -4.6432387   -3.1319696  0.052638318   -4.6432387    1.5112691      1024000 
   14000    1.0112772   -4.6567721   -4.6567721   -3.1398594  0.092397528   -4.6567721    1.5169127      1024000 
   15000    1.0099724   -4.6608611   -4.6608611   -3.1459056   0.09861583   -4.6608611    1.5149556      1024000 
   16000    1.0057495   -4.6602103   -4.6602103   -3.1515891  0.087473077   -4.6602103    1.5086212      1024000 
   17000    1.0027747   -4.6600904   -4.6600904   -3.1559315  0.082795088   -4.6600904     1.504159      1024000 
   18000    1.0025155   -4.6641194   -4.6641194   -3.1603492  0.092802452   -4.6641194    1.5037702      1024000 
   19000    1.0037948   -4.6698174   -4.6698174   -3.1641283   0.10193498   -4.6698174    1.5056892      1024000 
   20000    1.0042187   -4.6730369   -4.6730369   -3.1667118   0.10923904   -4.6730369    1.5063251      1024000 
   21000    1.0030295   -4.6743029   -4.6743029   -3.1697618   0.11566539   -4.6743029    1.5045412      1024000 
   22000     1.002069   -4.6750803   -4.6750803   -3.1719798   0.11776766   -4.6750803    1.5031005      1024000 
   23000    1.0016013   -4.6771983   -4.6771983   -3.1747994   0.12017297   -4.6771983    1.5023989      1024000 
   24000    1.0078117   -4.6894866   -4.6894866   -3.1777722   0.26850857   -4.6894866    1.5117144      1024000 
   25000    1.0207605   -4.7109932   -4.7109932   -3.1798555   0.74411122   -4.7109932    1.5311376      1024000 
   26000      1.03549   -4.7345259   -4.7345259   -3.1812941    1.0090659   -4.7345259    1.5532318      1024000 
   27000    1.0452806   -4.7509058   -4.7509058    -3.182988    1.2862112   -4.7509058    1.5679178      1024000 
   28000    1.0439782   -4.7499136   -4.7499136   -3.1839494     1.659415   -4.7499136    1.5659642      1024000 
   29000    1.0276367   -4.7277585   -4.7277585   -3.1863066    1.3067339   -4.7277585    1.5414519      1024000 
   30000   0.99453421   -4.6792995   -4.6792995   -3.1875012   0.99236964   -4.6792995    1.4917983      1024000 
   31000   0.98100463   -4.6586498   -4.6586498   -3.1871459   0.63500039   -4.6586498     1.471504      1024000 
   32000   0.95946818   -4.6281316   -4.6281316   -3.1889323    0.3680884   -4.6281316    1.4391993      1024000 
   33000   0.93010508   -4.5847255   -4.5847255   -3.1895707   0.21665267   -4.5847255    1.3951548      1024000 
   34000   0.89679487   -4.5357114   -4.5357114   -3.1905219  0.086366083   -4.5357114    1.3451896      1024000 
   35000   0.86877917   -4.4946426   -4.4946426   -3.1914765 -0.017226059   -4.4946426    1.3031661      1024000 
   36000   0.84665172   -4.4620381   -4.4620381   -3.1920631 -0.070103537   -4.4620381     1.269975      1024000 
   37000   0.83582449   -4.4467203   -4.4467203   -3.1929861 -0.084727976   -4.4467203    1.2537342      1024000 
   38000   0.83509586   -4.4464473   -4.4464473   -3.1938061  -0.07337975   -4.4464473    1.2526412      1024000 
   39000     0.837494    -4.451036    -4.451036   -3.1947975 -0.053368656    -4.451036    1.2562384      1024000 
   40000   0.84666891   -4.4653274   -4.4653274   -3.1953266 -0.021671257   -4.4653274    1.2700008      1024000 
   41000   0.85945847   -4.4847665   -4.4847665   -3.1955814  0.025131159   -4.4847665    1.2891851      1024000 
   42000   0.87201644   -4.5038596   -4.5038596   -3.1958376  0.073143662   -4.5038596     1.308022      1024000 
   43000   0.88076666   -4.5174007   -4.5174007   -3.1962534   0.11231052   -4.5174007    1.3211473      1024000 
   44000     0.884662   -4.5241955   -4.5241955   -3.1972052   0.12874912   -4.5241955    1.3269903      1024000 
   45000   0.88462848   -4.5252483   -4.5252483   -3.1983083   0.13591557   -4.5252483      1.32694      1024000 
   46000   0.88111299    -4.520524    -4.520524   -3.1988572   0.11335905    -4.520524    1.3216668      1024000 
   47000   0.87402738   -4.5099382   -4.5099382   -3.1988998   0.09004501   -4.5099382    1.3110384      1024000 
   48000   0.86863954   -4.5022834   -4.5022834   -3.1993268  0.049973261   -4.5022834    1.3029567      1024000 
   49000   0.86076482   -4.4915753   -4.4915753   -3.2004307  0.032715614   -4.4915753    1.2911446      1024000 
   50000    0.8555774    -4.484479    -4.484479   -3.2011155  0.013704445    -4.484479    1.2833635      1024000 
   51000   0.85340008   -4.4818244   -4.4818244   -3.2017269 0.0098438125   -4.4818244    1.2800975      1024000 
   52000   0.85450017   -4.4840704   -4.4840704   -3.2023228  0.017544767   -4.4840704    1.2817477      1024000 
   53000   0.85647283   -4.4874946   -4.4874946   -3.2027879   0.03098875   -4.4874946    1.2847066      1024000 
   54000   0.86085333   -4.4955667   -4.4955667   -3.2042893  0.050177828   -4.4955667    1.2912774      1024000 
   55000   0.86832408   -4.5080397   -4.5080397   -3.2055562  0.069178444   -4.5080397    1.3024835      1024000 
   56000   0.87256515   -4.5151265   -4.5151265   -3.2062815  0.091807106   -4.5151265    1.3088451      1024000 
   57000   0.87609752   -4.5213567   -4.5213567   -3.2072131   0.10862398   -4.5213567    1.3141436      1024000 
   58000   0.87931593   -4.5272469   -4.5272469   -3.2082757   0.12353834   -4.5272469    1.3189712      1024000 
   59000    0.8838551   -4.5356345   -4.5356345   -3.2098545   0.14397667   -4.5356345      1.32578      1024000 
   60000   0.88691648   -4.5417765   -4.5417765   -3.2114045   0.16482899   -4.5417765     1.330372      1024000 
   61000   0.88918703   -4.5481806   -4.5481806   -3.2144028   0.17367953   -4.5481806    1.3337778      1024000 
   62000   0.89328693   -4.5581937   -4.5581937    -3.218266   0.20998399   -4.5581937    1.3399277      1024000 
   63000   0.89905033    -4.571513    -4.571513   -3.2229402   0.26625929    -4.571513    1.3485728      1024000 
   64000   0.90585301   -4.5874119   -4.5874119   -3.2286351   0.32607148   -4.5874119    1.3587768      1024000 
   65000   0.91008644   -4.6022568   -4.6022568   -3.2371299   0.37830914   -4.6022568    1.3651269      1024000 
   66000   0.90916999   -4.6114641   -4.6114641   -3.2477119   0.40741271   -4.6114641    1.3637522      1024000 
   67000    0.9045079   -4.6167367   -4.6167367   -3.2599776   0.39795895   -4.6167367    1.3567591      1024000 
   68000   0.89192928   -4.6100802   -4.6100802    -3.272189   0.36026632   -4.6100802    1.3378912      1024000 
   69000   0.87619301   -4.5969754   -4.5969754   -3.2826886   0.30028239   -4.5969754    1.3142868      1024000 
   70000   0.86131967   -4.5873427   -4.5873427   -3.2953658     0.306474   -4.5873427    1.2919769      1024000 
   71000   0.84915857   -4.5918053   -4.5918053     -3.31807   0.38827938   -4.5918053    1.2737353      1024000 
   72000   0.84063324    -4.605741    -4.605741   -3.3447937   0.43715295    -4.605741    1.2609473      1024000 
   73000   0.83746002   -4.6259696   -4.6259696   -3.3697821   0.44151891   -4.6259696    1.2561875      1024000 
   74000   0.83950998   -4.6479707   -4.6479707   -3.3887083   0.43222578   -4.6479707    1.2592624      1024000 
   75000   0.84575353    -4.671301    -4.671301   -3.4026732   0.42608813    -4.671301    1.2686277      1024000 
   76000   0.85145725   -4.6897343   -4.6897343   -3.4125511   0.45499936   -4.6897343    1.2771833      1024000 
   77000   0.85850466   -4.7064047   -4.7064047   -3.4186503   0.48560986   -4.7064047    1.2877544      1024000 
   78000   0.85162253   -4.7001438   -4.7001438   -3.4227126   0.44402705   -4.7001438    1.2774312      1024000 
   79000   0.83370639   -4.6757688   -4.6757688   -3.4252118   0.33522334   -4.6757688     1.250557      1024000 
   80000   0.81375601   -4.6483151   -4.6483151   -3.4276835   0.24034386   -4.6483151    1.2206315      1024000 
   81000   0.79549344   -4.6254471   -4.6254471   -3.4322093   0.16790737   -4.6254471    1.1932377      1024000 
   82000   0.77797553   -4.6040533   -4.6040533   -3.4370924   0.11819085   -4.6040533    1.1669609      1024000 
   83000   0.76304001   -4.5878143   -4.5878143   -3.4432566  0.067705029   -4.5878143    1.1445577      1024000 
   84000   0.75121228    -4.575218    -4.575218   -3.4484019  0.005080442    -4.575218    1.1268161      1024000 
   85000   0.73969239   -4.5595875   -4.5595875   -3.4500512 -0.054467412   -4.5595875    1.1095363      1024000 
   86000   0.73320208   -4.5483758   -4.5483758   -3.4485749  -0.11633694   -4.5483758    1.0998009      1024000 
   87000   0.72467529   -4.5330779   -4.5330779   -3.4460672  -0.16189853   -4.5330779    1.0870107      1024000 
   88000   0.71788332   -4.5160884   -4.5160884   -3.4392656  -0.18830128   -4.5160884    1.0768228      1024000 
   89000   0.71654797   -4.5071755   -4.5071755   -3.4323557  -0.21650656   -4.5071755    1.0748198      1024000 
   90000   0.71224395     -4.49338     -4.49338   -3.4250162  -0.21767076     -4.49338    1.0683638      1024000 
   91000   0.70955883   -4.4827252   -4.4827252   -3.4183891  -0.22334133   -4.4827252    1.0643361      1024000 
   92000   0.70987967   -4.4771694   -4.4771694   -3.4123521  -0.22165941   -4.4771694    1.0648174      1024000 
   93000   0.71121233   -4.4743242   -4.4743242   -3.4075079  -0.21178029   -4.4743242    1.0668163      1024000 
   94000   0.71478073   -4.4763944   -4.4763944   -3.4042255  -0.18925693   -4.4763944    1.0721689      1024000 
   95000   0.71907418   -4.4819429   -4.4819429   -3.4033338  -0.16170188   -4.4819429    1.0786091      1024000 
   96000   0.72574348   -4.4929387   -4.4929387   -3.4043257  -0.12807752   -4.4929387     1.088613      1024000 
   97000   0.73209942   -4.5055745   -4.5055745   -3.4074275 -0.093938368   -4.5055745    1.0981469      1024000 
   98000   0.73929002   -4.5200724   -4.5200724   -3.4111397 -0.055676588   -4.5200724    1.1089328      1024000 
   99000   0.74636658   -4.5348572   -4.5348572   -3.4153096 -0.025287884   -4.5348572    1.1195476      1024000 
  100000    0.7522468   -4.5474291   -4.5474291   -3.4190612 0.00096083877   -4.5474291    1.1283679      1024000 
  101000   0.75626237   -4.5569955   -4.5569955   -3.4226043   0.01860464   -4.5569955    1.1343913      1024000 
  102000   0.75753298   -4.5617774   -4.5617774   -3.4254802  0.021861317   -4.5617774    1.1362972      1024000 
  103000   0.75558396   -4.5606685   -4.5606685   -3.4272949  0.011826203   -4.5606685    1.1333736      1024000 
  104000   0.75249418   -4.5570686   -4.5570686   -3.4283297 -0.0026459992   -4.5570686     1.128739      1024000 
  105000   0.75099165   -4.5557193   -4.5557193   -3.4292342 -0.015435888   -4.5557193    1.1264852      1024000 
  106000   0.74619186   -4.5497114   -4.5497114   -3.4304259 -0.022369888   -4.5497114    1.1192855      1024000 
  107000   0.74421761   -4.5472182   -4.5472182   -3.4308941 -0.030189815   -4.5472182    1.1163242      1024000 
  108000   0.74247922   -4.5460252   -4.5460252   -3.4323087 -0.030021872   -4.5460252    1.1137166      1024000 
  109000   0.74355979   -4.5491951   -4.5491951   -3.4338577 -0.029312903   -4.5491951    1.1153374      1024000 
  110000   0.74428221   -4.5529094   -4.5529094   -3.4364884 -0.031510412   -4.5529094     1.116421      1024000 
  111000   0.74733894   -4.5583713   -4.5583713   -3.4373652 -0.019549927   -4.5583713    1.1210061      1024000 
  112000   0.74961984    -4.562271    -4.562271   -3.4378435 -0.011045104    -4.562271    1.1244275      1024000 
  113000   0.75115612   -4.5653584   -4.5653584   -3.4386265 0.0036432924   -4.5653584    1.1267319      1024000 
  114000   0.75511094   -4.5713126   -4.5713126   -3.4386485  0.011197613   -4.5713126    1.1326641      1024000 
  115000    0.7576949   -4.5755331   -4.5755331    -3.438993  0.018557546   -4.5755331      1.13654      1024000 
  116000   0.75790558   -4.5768371   -4.5768371   -3.4399811  0.021392416   -4.5768371    1.1368561      1024000 
  117000   0.75785922   -4.5771316   -4.5771316   -3.4403451  0.025543064   -4.5771316    1.1367865      1024000 
  118000   0.75688798   -4.5766448   -4.5766448   -3.4413151  0.025455044   -4.5766448    1.1353297      1024000 
  119000   0.75539458   -4.5761532   -4.5761532   -3.4430636  0.017650838   -4.5761532    1.1330896      1024000 
  120000   0.75343724   -4.5745592   -4.5745592   -3.4444056  0.012001758   -4.5745592    1.1301536      1024000 
  121000   0.75255231   -4.5736964   -4.5736964   -3.4448702 0.0069465859   -4.5736964    1.1288262      1024000 
  122000   0.74959276   -4.5705231   -4.5705231   -3.4461362 0.0012863088   -4.5705231    1.1243869      1024000 
  123000   0.75088431   -4.5728492   -4.5728492    -3.446525 -0.0023061016   -4.5728492    1.1263242      1024000 
  124000   0.75090132   -4.5742701   -4.5742701   -3.4479204 -0.00066673977   -4.5742701    1.1263497      1024000 
  125000   0.75002261   -4.5745721   -4.5745721   -3.4495405 -0.0010704437   -4.5745721    1.1250316      1024000 
  126000   0.75150903   -4.5762599   -4.5762599   -3.4489987 0.0027142581   -4.5762599    1.1272613      1024000 
  127000   0.75199271     -4.57629     -4.57629   -3.4483032  0.010830958     -4.57629    1.1279868      1024000 
  128000   0.75325616   -4.5782963   -4.5782963   -3.4484143  0.009767117   -4.5782963    1.1298819      1024000 
  129000   0.75450498   -4.5804202   -4.5804202    -3.448665 0.0049065116   -4.5804202    1.1317552      1024000 
  130000   0.75530594   -4.5814909   -4.5814909   -3.4485343  0.014070122   -4.5814909    1.1329566      1024000 
  131000   0.75607364   -4.5833263   -4.5833263   -3.4492181  0.018657081   -4.5833263    1.1341082      1024000 
  132000   0.75676479   -4.5848258   -4.5848258   -3.4496809  0.016729622   -4.5848258    1.1351449      1024000 
  133000   0.75617654   -4.5837307   -4.5837307   -3.4494681  0.027616684   -4.5837307    1.1342625      1024000 
  134000   0.75774497   -4.5870321   -4.5870321   -3.4504169  0.024367735   -4.5870321    1.1366152      1024000 
  135000   0.75761913   -4.5881501   -4.5881501   -3.4517237  0.030413126   -4.5881501    1.1364264      1024000 
  136000   0.75816783   -4.5892624   -4.5892624    -3.452013  0.030949575   -4.5892624    1.1372494      1024000 
  137000   0.75846705   -4.5897876   -4.5897876   -3.4520893  0.043184037   -4.5897876    1.1376983      1024000 
  138000   0.76016482   -4.5930125   -4.5930125   -3.4527676  0.036121507   -4.5930125    1.1402449      1024000 
  139000   0.75989507   -4.5931915   -4.5931915   -3.4533512  0.043681592   -4.5931915    1.1398403      1024000 
  140000   0.76137654   -4.5957356   -4.5957356   -3.4536731  0.044417544   -4.5957356    1.1420625      1024000 
  141000    0.7608677   -4.5952922   -4.5952922   -3.4539929   0.05157714   -4.5952922    1.1412992      1024000 
  142000   0.76290356   -4.5988426   -4.5988426   -3.4544896  0.050682214   -4.5988426     1.144353      1024000 
  143000   0.76379578   -4.6012577   -4.6012577   -3.4555663  0.051543785   -4.6012577    1.1456913      1024000 
  144000   0.76307028   -4.6009113   -4.6009113   -3.4563082  0.061912304   -4.6009113    1.1446031      1024000 
  145000    0.7637062   -4.6021122   -4.6021122   -3.4565552  0.062084133   -4.6021122     1.145557      1024000 
  146000   0.76379106   -4.6029868   -4.6029868   -3.4573025  0.063903995   -4.6029868    1.1456843      1024000 
  147000   0.76273691   -4.6026583   -4.6026583   -3.4585553   0.05565505   -4.6026583     1.144103      1024000 
  148000   0.76150259    -4.601601    -4.601601   -3.4593494  0.050235057    -4.601601    1.1422516      1024000 
  149000    0.7611803   -4.6008039   -4.6008039   -3.4590358  0.049070101   -4.6008039    1.1417681      1024000 
  150000   0.75992674   -4.5997661   -4.5997661   -3.4598783  0.037443472   -4.5997661    1.1398878      1024000 
  151000   0.75749934   -4.5971425   -4.5971425   -3.4608958  0.035430039   -4.5971425    1.1362467      1024000 
  152000   0.75617187   -4.5952024   -4.5952024   -3.4609469  0.031714464   -4.5952024    1.1342555      1024000 
  153000   0.75534362    -4.593383    -4.593383   -3.4603698  0.024559393    -4.593383    1.1330131      1024000 
  154000   0.75418973   -4.5908977   -4.5908977   -3.4596154  0.016189588   -4.5908977    1.1312823      1024000 
  155000   0.75341355   -4.5880892   -4.5880892   -3.4579712 0.0088417022   -4.5880892     1.130118      1024000 
  156000   0.75044519   -4.5831664   -4.5831664   -3.4575008 0.0082623258   -4.5831664    1.1256655      1024000 
  157000   0.75065171   -4.5815526   -4.5815526   -3.4555773 -0.0010812741   -4.5815526    1.1259753      1024000 
  158000   0.74916767   -4.5781899   -4.5781899   -3.4544407 -0.0047389302   -4.5781899    1.1237492      1024000 
  159000   0.74921235   -4.5770918   -4.5770918   -3.4532755 -0.015712203   -4.5770918    1.1238162      1024000 
  160000   0.74839964   -4.5748517   -4.5748517   -3.4522545 -0.016918419   -4.5748517    1.1225972      1024000 
  161000   0.74876396   -4.5745044   -4.5745044   -3.4513608 -0.020192965   -4.5745044    1.1231437      1024000 
  162000    0.7472541   -4.5714011   -4.5714011   -3.4505222 -0.017752428   -4.5714011    1.1208789      1024000 
  163000   0.74832817   -4.5723058   -4.5723058   -3.4498159 -0.022273472   -4.5723058      1.12249      1024000 
  164000   0.74804877   -4.5709072   -4.5709072   -3.4488363 -0.021558351   -4.5709072    1.1220709      1024000 
  165000   0.74770101   -4.5688381   -4.5688381   -3.4472889 -0.019915374   -4.5688381    1.1215492      1024000 
  166000   0.74931042   -4.5708627   -4.5708627   -3.4468993 -0.016992121   -4.5708627    1.1239633      1024000 
  167000   0.74927769   -4.5696211   -4.5696211   -3.4457068 -0.017711595   -4.5696211    1.1239143      1024000 
  168000    0.7504214   -4.5700968   -4.5700968   -3.4444669 -0.012019478   -4.5700968    1.1256298      1024000 
  169000   0.75054131   -4.5699085   -4.5699085   -3.4440988 -0.00091847737   -4.5699085    1.1258097      1024000 
  170000   0.75229808   -4.5710406   -4.5710406   -3.4425958 -0.0033700769   -4.5710406    1.1284448      1024000 
  171000   0.75421283   -4.5737712   -4.5737712   -3.4424543 -0.0016123662   -4.5737712    1.1313169      1024000 
  172000   0.75359221   -4.5723242   -4.5723242   -3.4419382 0.0077766477   -4.5723242     1.130386      1024000 
  173000   0.75620508   -4.5759461   -4.5759461   -3.4416407  0.012503779   -4.5759461    1.1343053      1024000 
  174000   0.75592076   -4.5760746   -4.5760746   -3.4421957  0.018378471   -4.5760746    1.1338788      1024000 
  175000   0.75687519   -4.5779337   -4.5779337   -3.4426232  0.025100233   -4.5779337    1.1353105      1024000 
  176000    0.7588054   -4.5802653   -4.5802653   -3.4420595  0.021795508   -4.5802653    1.1382058      1024000 
  177000   0.75894865   -4.5801778   -4.5801778   -3.4417571  0.030946922   -4.5801778    1.1384207      1024000 
  178000   0.76032568   -4.5819541   -4.5819541   -3.4414679  0.033983768   -4.5819541    1.1404862      1024000 
  179000   0.76025188   -4.5818269   -4.5818269   -3.4414514  0.037073017   -4.5818269    1.1403755      1024000 
  180000   0.76111746   -4.5834745   -4.5834745   -3.4418006  0.036712176   -4.5834745    1.1416739      1024000 
  181000   0.76166396   -4.5846026   -4.5846026    -3.442109  0.031792035   -4.5846026    1.1424936      1024000 
  182000   0.76129815   -4.5840657   -4.5840657   -3.4421208  0.038737354   -4.5840657    1.1419449      1024000 
  183000   0.76082553   -4.5825752   -4.5825752   -3.4413392  0.037366311   -4.5825752     1.141236      1024000 
  184000   0.76149329   -4.5829579   -4.5829579   -3.4407203  0.038796531   -4.5829579    1.1422376      1024000 
  185000   0.76149725   -4.5823208   -4.5823208   -3.4400772   0.04269426   -4.5823208    1.1422436      1024000 
  186000   0.76081454   -4.5816795   -4.5816795   -3.4404601  0.036224906   -4.5816795    1.1412195      1024000 
  187000   0.76059676   -4.5814114   -4.5814114   -3.4405186  0.027983595   -4.5814114    1.1408928      1024000 
  188000    0.7603319   -4.5804487   -4.5804487   -3.4399531   0.02864268   -4.5804487    1.1404955      1024000 
  189000   0.75881108   -4.5772977   -4.5772977   -3.4390834  0.029227177   -4.5772977    1.1382143      1024000 
  190000    0.7589902   -4.5769338   -4.5769338   -3.4384508   0.02099972   -4.5769338     1.138483      1024000 
  191000   0.75896216   -4.5757685   -4.5757685   -3.4373275  0.015407943   -4.5757685    1.1384409      1024000 
  192000   0.75670715   -4.5719807   -4.5719807   -3.4369222  0.014150873   -4.5719807    1.1350584      1024000 
  193000   0.75644536   -4.5711858   -4.5711858     -3.43652 0.0081253183   -4.5711858    1.1346657      1024000 
  194000   0.75663248   -4.5701686   -4.5701686   -3.4352222 0.0073291008   -4.5701686    1.1349464      1024000 
  195000   0.75679292    -4.569353    -4.569353   -3.4341659 0.0043375794    -4.569353    1.1351871      1024000 
  196000   0.75618011   -4.5665546   -4.5665546   -3.4322867 -0.00079448485   -4.5665546    1.1342679      1024000 
  197000   0.75548186   -4.5643817   -4.5643817   -3.4311612 0.00092633298   -4.5643817    1.1332205      1024000 
  198000   0.75543908   -4.5638865   -4.5638865   -3.4307301 -0.0058424111   -4.5638865    1.1331563      1024000 
  199000   0.75437409    -4.560208    -4.560208   -3.4286492 -2.5006319e-06    -4.560208    1.1315588      1024000 
  200000   0.75472905   -4.5599947   -4.5599947   -3.4279034  -0.00347261   -4.5599947    1.1320913      1024000 
  201000   0.75518589   -4.5593311   -4.5593311   -3.4265545 -0.0054959348   -4.5593311    1.1327765      1024000 
  202000   0.75671014   -4.5598859   -4.5598859    -3.424823 -0.0032915835   -4.5598859    1.1350629      1024000 
  203000   0.75678822   -4.5590111   -4.5590111   -3.4238311 -0.0033364354   -4.5590111      1.13518      1024000 
  204000   0.75618648    -4.557383    -4.557383   -3.4231056 -0.0021553103    -4.557383    1.1342774      1024000 
  205000    0.7566169   -4.5573526   -4.5573526   -3.4224295 -0.0022181237   -4.5573526     1.134923      1024000 
  206000   0.75736251   -4.5566082   -4.5566082   -3.4205667 0.0020528555   -4.5566082    1.1360415      1024000 
  207000   0.75798257   -4.5560094   -4.5560094   -3.4190379 -0.00067298431   -4.5560094    1.1369716      1024000 
  208000    0.7593717   -4.5570189   -4.5570189   -3.4179637 0.0064742202   -4.5570189    1.1390552      1024000 
  209000   0.75857739    -4.555371    -4.555371   -3.4175073  0.014106214    -4.555371    1.1378638      1024000 
  210000   0.76044598   -4.5582145   -4.5582145   -3.4175478 0.0062430391   -4.5582145    1.1406667      1024000 
  211000    0.7609946   -4.5583276   -4.5583276   -3.4168381   0.01442462   -4.5583276    1.1414896      1024000 
  212000   0.76091156   -4.5580284   -4.5580284   -3.4166634  0.018043677   -4.5580284     1.141365      1024000 
  213000   0.76151163   -4.5568516   -4.5568516   -3.4145865  0.019080298   -4.5568516    1.1422651      1024000 
  214000   0.76327606   -4.5586277   -4.5586277   -3.4137159  0.019714464   -4.5586277    1.1449118      1024000 
  215000   0.76273592   -4.5573719   -4.5573719   -3.4132703  0.022460532   -4.5573719    1.1441016      1024000 
  216000   0.76316692   -4.5575099   -4.5575099   -3.4127618  0.021292876   -4.5575099    1.1447481      1024000 
  217000   0.76418645   -4.5583345   -4.5583345   -3.4120572  0.021380943   -4.5583345    1.1462773      1024000 
  218000   0.76418381    -4.557526    -4.557526   -3.4112526   0.02736081    -4.557526    1.1462734      1024000 
  219000   0.76407872   -4.5578869   -4.5578869   -3.4117712  0.025408373   -4.5578869    1.1461158      1024000 
  220000   0.76359673   -4.5569285   -4.5569285   -3.4115358   0.02841929   -4.5569285    1.1453928      1024000 
  221000   0.76478127   -4.5575995   -4.5575995   -3.4104299  0.020317439   -4.5575995    1.1471696      1024000 
  222000   0.76360316   -4.5550245   -4.5550245   -3.4096221  0.024685061   -4.5550245    1.1454024      1024000 
  223000   0.76367641   -4.5537071   -4.5537071   -3.4081948  0.022085345   -4.5537071    1.1455123      1024000 
  224000   0.76410343   -4.5530515   -4.5530515   -3.4068987  0.023100112   -4.5530515    1.1461528      1024000 
  225000   0.76406844   -4.5534571   -4.5534571   -3.4073568  0.019408175   -4.5534571    1.1461003      1024000 
  226000   0.76335418   -4.5517145   -4.5517145   -3.4066855  0.015934383   -4.5517145    1.1450289      1024000 
  227000   0.76264338   -4.5503855   -4.5503855   -3.4064228  0.013134084   -4.5503855    1.1439627      1024000 
  228000   0.76274936   -4.5502639   -4.5502639   -3.4061422  0.011728111   -4.5502639    1.1441217      1024000 
  229000   0.76269802   -4.5486401   -4.5486401   -3.4045954  0.012855692   -4.5486401    1.1440447      1024000 
  230000   0.76251665   -4.5471928   -4.5471928   -3.4034201  0.010236816   -4.5471928    1.1437727      1024000 
  231000   0.76175228   -4.5447602   -4.5447602   -3.4021341  0.011281189   -4.5447602    1.1426261      1024000 
  232000    0.7628593   -4.5440388   -4.5440388   -3.3997522 0.0072310512   -4.5440388    1.1442866      1024000 
  233000   0.76274199   -4.5427003   -4.5427003   -3.3985896 0.0095714137   -4.5427003    1.1441107      1024000 
  234000   0.76295115    -4.541509    -4.541509   -3.3970846   0.01089373    -4.541509    1.1444244      1024000 
  235000   0.76335645   -4.5409295   -4.5409295   -3.3958971 0.0098126015   -4.5409295    1.1450323      1024000 
  236000   0.76390322   -4.5399194   -4.5399194   -3.3940669  0.013717829   -4.5399194    1.1458525      1024000 
  237000    0.7645037   -4.5391671   -4.5391671   -3.3924139  0.012333729   -4.5391671    1.1467532      1024000 
  238000   0.76467333   -4.5377335   -4.5377335   -3.3907259  0.015639177   -4.5377335    1.1470077      1024000 
  239000     0.764879   -4.5371808   -4.5371808   -3.3898647  0.010800958   -4.5371808    1.1473162      1024000 
  240000    0.7644284   -4.5354268   -4.5354268   -3.3887865  0.011749625   -4.5354268    1.1466403      1024000 
  241000   0.76497048   -4.5347764   -4.5347764    -3.387323  0.011128863   -4.5347764    1.1474534      1024000 
  242000   0.76538301   -4.5340732   -4.5340732    -3.386001  0.010058695   -4.5340732    1.1480722      1024000 
  243000   0.76512397   -4.5320445   -4.5320445   -3.3843609 0.0094392191   -4.5320445    1.1476836      1024000 
  244000   0.76407906   -4.5297165   -4.5297165   -3.3836003  0.013615547   -4.5297165    1.1461163      1024000 
  245000   0.76396685   -4.5283833   -4.5283833   -3.3824354  0.014146063   -4.5283833    1.1459479      1024000 
  246000     0.766193   -4.5311231   -4.5311231   -3.3818359 0.0088454247   -4.5311231    1.1492872      1024000 
  247000   0.76537479   -4.5293607   -4.5293607   -3.3813008  0.010491524   -4.5293607    1.1480599      1024000 
  248000   0.76728622    -4.530071    -4.530071    -3.379144   0.01130518    -4.530071     1.150927      1024000 
  249000   0.76726274   -4.5289178   -4.5289178    -3.378026 0.0098947788   -4.5289178    1.1508918      1024000 
  250000   0.76641282   -4.5269295   -4.5269295   -3.3773127  0.010225703   -4.5269295    1.1496169      1024000 
  251000   0.76666207   -4.5260164   -4.5260164   -3.3760256  0.017530636   -4.5260164    1.1499908      1024000 
  252000   0.76730135   -4.5269242   -4.5269242   -3.3759745  0.013741659   -4.5269242    1.1509497      1024000 
  253000   0.76732594   -4.5260742   -4.5260742   -3.3750876  0.012937243   -4.5260742    1.1509866      1024000 
  254000   0.76766037    -4.524933    -4.524933   -3.3734448  0.016170142    -4.524933    1.1514882      1024000 
  255000   0.76785675   -4.5248741   -4.5248741   -3.3730913  0.017535619   -4.5248741    1.1517828      1024000 
  256000   0.76885229   -4.5251548   -4.5251548   -3.3718787  0.014212313   -4.5251548    1.1532761      1024000 
  257000   0.76769885    -4.522671    -4.522671    -3.371125  0.016659959    -4.522671    1.1515459      1024000 
  258000   0.76812395   -4.5223944   -4.5223944   -3.3702108  0.015366406   -4.5223944    1.1521836      1024000 
  259000   0.77036192   -4.5235764   -4.5235764   -3.3680358  0.015953208   -4.5235764    1.1555405      1024000 
  260000   0.77009691   -4.5219991   -4.5219991    -3.366856  0.020061871   -4.5219991     1.155143      1024000 
  261000   0.77017288   -4.5207478   -4.5207478   -3.3654908  0.019323703   -4.5207478     1.155257      1024000 
  262000   0.77080103   -4.5212935   -4.5212935   -3.3650943  0.020227985   -4.5212935    1.1561992      1024000 
  263000   0.77110277   -4.5204118   -4.5204118     -3.36376  0.020570795   -4.5204118    1.1566518      1024000 
  264000   0.77199359   -4.5196694   -4.5196694   -3.3616814  0.022340942   -4.5196694     1.157988      1024000 
  265000   0.77085549   -4.5167671   -4.5167671   -3.3604862  0.025340332   -4.5167671    1.1562809      1024000 
  266000   0.77173494   -4.5168856   -4.5168856   -3.3592855  0.018678334   -4.5168856    1.1576001      1024000 
  267000   0.77122531   -4.5144015   -4.5144015   -3.3575659  0.023496661   -4.5144015    1.1568356      1024000 
  268000   0.77243658   -4.5150503   -4.5150503   -3.3563978  0.019523132   -4.5150503    1.1586525      1024000 
  269000   0.77189845   -4.5135508   -4.5135508   -3.3557055  0.018007829   -4.5135508    1.1578453      1024000 
  270000   0.77251165   -4.5125498   -4.5125498   -3.3537846  0.018548914   -4.5125498    1.1587651      1024000 
  271000   0.77226059   -4.5114368   -4.5114368   -3.3530483   0.01403463   -4.5114368    1.1583885      1024000 
  272000    0.7714469   -4.5093982   -4.5093982   -3.3522302  0.017107498   -4.5093982     1.157168      1024000 
  273000   0.77287482   -4.5097221   -4.5097221   -3.3504122  0.014109642   -4.5097221    1.1593099      1024000 
  274000   0.77380059   -4.5098032   -4.5098032   -3.3491047  0.014660156   -4.5098032    1.1606985      1024000 
  275000   0.77292507   -4.5073527   -4.5073527   -3.3479674  0.012982158   -4.5073527    1.1593853      1024000 
  276000   0.77298081    -4.504969    -4.504969   -3.3455002   0.01185299    -4.504969    1.1594689      1024000 
  277000   0.77303415   -4.5043543   -4.5043543   -3.3448054  0.010686741   -4.5043543    1.1595489      1024000 
  278000   0.77348602    -4.502984    -4.502984   -3.3427574   0.01178623    -4.502984    1.1602267      1024000 
  279000   0.77340779   -4.5014751   -4.5014751   -3.3413657  0.011092298   -4.5014751    1.1601093      1024000 
  280000   0.77385544   -4.5007026   -4.5007026   -3.3399218 0.0085955934   -4.5007026    1.1607808      1024000 
  281000   0.77494641   -4.4992825   -4.4992825   -3.3368653  0.016043546   -4.4992825    1.1624172      1024000 
  282000    0.7744765   -4.4975886   -4.4975886   -3.3358762  0.015523713   -4.4975886    1.1617124      1024000 
  283000   0.77440887   -4.4968292   -4.4968292   -3.3352182  0.014863352   -4.4968292    1.1616109      1024000 
  284000   0.77457783   -4.4949301   -4.4949301   -3.3330657  0.014908199   -4.4949301    1.1618644      1024000 
  285000   0.77502744    -4.493884    -4.493884   -3.3313452  0.010888699    -4.493884    1.1625388      1024000 
  286000   0.77338884   -4.4910547   -4.4910547   -3.3309738  0.012929953   -4.4910547    1.1600809      1024000 
  287000   0.77462918   -4.4910508   -4.4910508   -3.3291094    0.0130699   -4.4910508    1.1619414      1024000 
  288000   0.77592182   -4.4912856   -4.4912856   -3.3274052  0.011583939   -4.4912856    1.1638804      1024000 
  289000   0.77564484   -4.4890338   -4.4890338   -3.3255689  0.010180843   -4.4890338    1.1634649      1024000 
  290000   0.77619829   -4.4878941   -4.4878941   -3.3235991  0.011833228   -4.4878941    1.1642951      1024000 
  291000   0.77640838   -4.4875227   -4.4875227   -3.3229125 0.0073257173   -4.4875227    1.1646102      1024000 
  292000   0.77587051   -4.4855851   -4.4855851   -3.3217817 0.0096933578   -4.4855851    1.1638034      1024000 
  293000   0.77625282   -4.4850078   -4.4850078   -3.3206309 0.0081279405   -4.4850078    1.1643769      1024000 
  294000   0.77576921   -4.4839195   -4.4839195   -3.3202681   0.01085412   -4.4839195    1.1636515      1024000 
  295000   0.77671671   -4.4837462   -4.4837462   -3.3186735 0.0063266423   -4.4837462    1.1650727      1024000 
  296000   0.77656644     -4.48161     -4.48161   -3.3167627   0.01193359     -4.48161    1.1648473      1024000 
  297000   0.77685833     -4.48044     -4.48044   -3.3151548 0.0098243919     -4.48044    1.1652851      1024000 
  298000   0.77840024   -4.4807557   -4.4807557   -3.3131577 0.0066793578   -4.4807557     1.167598      1024000 
  299000   0.77825932   -4.4790021   -4.4790021   -3.3116155  0.010928089   -4.4790021    1.1673866      1024000 
  300000   0.77823331   -4.4789084   -4.4789084   -3.3115608  0.010126506   -4.4789084    1.1673476      1024000 
  301000   0.77887669   -4.4781388   -4.4781388   -3.3098261  0.013107547   -4.4781388    1.1683127      1024000 
  302000   0.77832621   -4.4758434   -4.4758434   -3.3083564  0.014663793   -4.4758434    1.1674869      1024000 
  303000   0.77959274   -4.4765912   -4.4765912   -3.3072044  0.014759996   -4.4765912    1.1693867      1024000 
  304000   0.78008993   -4.4746545   -4.4746545    -3.304522  0.016716314   -4.4746545    1.1701325      1024000 
  305000   0.77986181   -4.4721807   -4.4721807   -3.3023903  0.025321483   -4.4721807    1.1697903      1024000 
  306000   0.78207471   -4.4737637   -4.4737637    -3.300654  0.017924541   -4.4737637    1.1731097      1024000 
  307000   0.78145417   -4.4716713   -4.4716713   -3.2994924  0.020372506   -4.4716713    1.1721789      1024000 
  308000   0.78281419   -4.4718573   -4.4718573   -3.2976384  0.021261767   -4.4718573    1.1742189      1024000 
  309000   0.78286091   -4.4710702   -4.4710702   -3.2967812  0.024740525   -4.4710702     1.174289      1024000 
  310000   0.78332712   -4.4701286   -4.4701286   -3.2951403  0.022411233   -4.4701286    1.1749883      1024000 
  311000   0.78271624   -4.4689926   -4.4689926   -3.2949206  0.023442457   -4.4689926     1.174072      1024000 
  312000   0.78330525   -4.4683447   -4.4683447   -3.2933892   0.01983118   -4.4683447    1.1749555      1024000 
  313000   0.78222331   -4.4647852   -4.4647852   -3.2914526   0.02247678   -4.4647852    1.1733326      1024000 
  314000   0.78376004   -4.4657178   -4.4657178   -3.2900801  0.019043768   -4.4657178    1.1756377      1024000 
  315000   0.78342805    -4.462606    -4.462606   -3.2874663  0.021041625    -4.462606    1.1751397      1024000 
  316000   0.78415712   -4.4629035   -4.4629035   -3.2866702  0.017347483   -4.4629035    1.1762333      1024000 
  317000   0.78403822    -4.461239    -4.461239   -3.2851841  0.011713672    -4.461239    1.1760549      1024000 
  318000   0.78454322   -4.4607934   -4.4607934    -3.283981 0.0091909116   -4.4607934    1.1768124      1024000 
  319000   0.78288477   -4.4566711   -4.4566711   -3.2823463  0.016474639   -4.4566711    1.1743248      1024000 
  320000   0.78346421   -4.4552112   -4.4552112   -3.2800173   0.01765544   -4.4552112    1.1751939      1024000 
  321000   0.78574077   -4.4575366   -4.4575366   -3.2789278  0.010098889   -4.4575366    1.1786088      1024000 
  322000   0.78461102   -4.4544392   -4.4544392   -3.2775251 0.0091783113   -4.4544392    1.1769141      1024000 
  323000   0.78328607   -4.4506607   -4.4506607   -3.2757339  0.014670281   -4.4506607    1.1749267      1024000 
  324000   0.78416003    -4.450412    -4.450412   -3.2741743 0.0098363089    -4.450412    1.1762377      1024000 
  325000   0.78422403   -4.4497577   -4.4497577   -3.2734241  0.011998256   -4.4497577    1.1763337      1024000 
  326000   0.78471443   -4.4475825   -4.4475825   -3.2705132    0.0145701   -4.4475825    1.1770693      1024000 
  327000   0.78445283   -4.4453561   -4.4453561   -3.2686793  0.010928039   -4.4453561    1.1766769      1024000 
  328000   0.78408437    -4.443495    -4.443495   -3.2673708  0.010529081    -4.443495    1.1761242      1024000 
  329000   0.78510574   -4.4430424   -4.4430424   -3.2653862  0.009337758   -4.4430424    1.1776562      1024000 
  330000   0.78682524   -4.4439525   -4.4439525    -3.263717 0.0060483982   -4.4439525    1.1802355      1024000 
  331000   0.78739203   -4.4430393   -4.4430393   -3.2619537 0.0049994246   -4.4430393    1.1810856      1024000 
  332000   0.78667113    -4.440156    -4.440156   -3.2601517 0.0093970583    -4.440156    1.1800043      1024000 
  333000   0.78705298   -4.4388923   -4.4388923   -3.2583153  0.015025936   -4.4388923    1.1805771      1024000 
  334000   0.78931097   -4.4399299   -4.4399299   -3.2559658  0.015245972   -4.4399299    1.1839641      1024000 
  335000   0.78783312   -4.4356734   -4.4356734   -3.2539261  0.018018711   -4.4356734    1.1817473      1024000 
  336000   0.78915816   -4.4360579   -4.4360579    -3.252323  0.015701432   -4.4360579    1.1837348      1024000 
  337000   0.78945995   -4.4353262   -4.4353262   -3.2511387  0.020358347   -4.4353262    1.1841875      1024000 
  338000   0.78922026   -4.4340266   -4.4340266   -3.2501986  0.018057013   -4.4340266     1.183828      1024000 
  339000   0.78911836   -4.4326391   -4.4326391   -3.2489639   0.01553916   -4.4326391    1.1836751      1024000 
  340000   0.79053593   -4.4333741   -4.4333741   -3.2475726  0.014729962   -4.4333741    1.1858015      1024000 
  341000   0.79006567   -4.4309904   -4.4309904   -3.2458943  0.014966625   -4.4309904    1.1850961      1024000 
  342000   0.78932117   -4.4294783   -4.4294783   -3.2454989  0.013948006   -4.4294783    1.1839794      1024000 
  343000    0.7888232   -4.4276797   -4.4276797   -3.2444473  0.012969748   -4.4276797    1.1832324      1024000 
  344000   0.78980888    -4.427576    -4.427576   -3.2428651  0.010225714    -4.427576    1.1847109      1024000 
  345000   0.79109472   -4.4277077   -4.4277077    -3.241068  0.012826948   -4.4277077    1.1866397      1024000 
  346000   0.79225253    -4.428205    -4.428205   -3.2398286  0.007565199    -4.428205    1.1883764      1024000 
  347000   0.79145278    -4.424642    -4.424642   -3.2374653  0.016260144    -4.424642    1.1871768      1024000 
  348000   0.79120692   -4.4225029   -4.4225029    -3.235695  0.016524557   -4.4225029     1.186808      1024000 
  349000   0.79202699   -4.4213439   -4.4213439   -3.2333058  0.021623633   -4.4213439    1.1880381      1024000 
  350000   0.79269418     -4.42162     -4.42162   -3.2325811  0.019296132     -4.42162    1.1890389      1024000 
  351000   0.79192262   -4.4185624   -4.4185624   -3.2306809  0.023290109   -4.4185624    1.1878815      1024000 
  352000   0.79319367   -4.4192312   -4.4192312   -3.2294431   0.02046798   -4.4192312    1.1897881      1024000 
  353000   0.79367362    -4.416825    -4.416825    -3.226317  0.018733309    -4.416825     1.190508      1024000 
  354000   0.79503974   -4.4172624   -4.4172624   -3.2247052  0.017363776   -4.4172624    1.1925572      1024000 
  355000   0.79387051   -4.4137501   -4.4137501   -3.2229467  0.016830744   -4.4137501    1.1908034      1024000 
  356000   0.79496908   -4.4144283   -4.4144283   -3.2219771 0.0079273131   -4.4144283    1.1924512      1024000 
  357000   0.79468602   -4.4125156   -4.4125156    -3.220489  0.017201097   -4.4125156    1.1920266      1024000 
  358000   0.79467621   -4.4110971   -4.4110971   -3.2190852  0.013504776   -4.4110971    1.1920119      1024000 
  359000   0.79573559   -4.4103315   -4.4103315   -3.2167305  0.012105986   -4.4103315     1.193601      1024000 
  360000   0.79592311   -4.4093275   -4.4093275   -3.2154453  0.010842528   -4.4093275    1.1938822      1024000 
  361000   0.79647261     -4.40746     -4.40746   -3.2127535  0.014871652     -4.40746    1.1947065      1024000 
  362000   0.79591346   -4.4056612   -4.4056612   -3.2117935  0.012381738   -4.4056612    1.1938678      1024000 
  363000   0.79709371   -4.4056665   -4.4056665   -3.2100284  0.010644356   -4.4056665    1.1956381      1024000 
  364000   0.79729145   -4.4038738   -4.4038738    -3.207939  0.014686625   -4.4038738    1.1959347      1024000 
  365000   0.79797264   -4.4028156   -4.4028156   -3.2058591  0.014735157   -4.4028156    1.1969565      1024000 
  366000    0.7984542   -4.4012238   -4.4012238   -3.2035449  0.010975771   -4.4012238    1.1976789      1024000 
  367000   0.79839935   -4.3986301   -4.3986301   -3.2010335  0.013839647   -4.3986301    1.1975966      1024000 
  368000   0.79699105   -4.3951821   -4.3951821   -3.1996979  0.018869122   -4.3951821    1.1954842      1024000 
  369000    0.7988339   -4.3960281   -4.3960281   -3.1977797  0.013593798   -4.3960281    1.1982484      1024000 
  370000   0.79886558   -4.3946806   -4.3946806   -3.1963847  0.011680251   -4.3946806    1.1982959      1024000 
  371000   0.79773522   -4.3907328   -4.3907328   -3.1941324  0.016115426   -4.3907328    1.1966004      1024000 
  372000   0.79851176   -4.3899031   -4.3899031   -3.1921379  0.018494521   -4.3899031    1.1977652      1024000 
  373000   0.79888534    -4.389779    -4.389779   -3.1914534  0.011851202    -4.389779    1.1983256      1024000 
  374000   0.79894247    -4.388735    -4.388735   -3.1903237  0.010680928    -4.388735    1.1984113      1024000 
  375000   0.79934757   -4.3876769   -4.3876769    -3.188658  0.014247557   -4.3876769    1.1990189      1024000 
  376000     0.798288   -4.3842464   -4.3842464   -3.1868169  0.016936388   -4.3842464    1.1974296      1024000 
  377000   0.79909781   -4.3838521   -4.3838521   -3.1852078  0.015219216   -4.3838521    1.1986443      1024000 
  378000   0.79907796   -4.3815686   -4.3815686   -3.1829541  0.014113937   -4.3815686    1.1986145      1024000 
  379000    0.8000211   -4.3821256   -4.3821256   -3.1820964  0.012667979   -4.3821256    1.2000292      1024000 
  380000   0.80025529   -4.3801687   -4.3801687   -3.1797882  0.014705486   -4.3801687    1.2003805      1024000 
  381000   0.79932475   -4.3772103   -4.3772103   -3.1782256  0.016354802   -4.3772103    1.1989847      1024000 
  382000   0.80122055   -4.3770698   -4.3770698   -3.1752414  0.019212637   -4.3770698    1.2018284      1024000 
  383000   0.80226751   -4.3764354   -4.3764354   -3.1730366  0.016974152   -4.3764354    1.2033988      1024000 
  384000   0.80207219   -4.3746539   -4.3746539   -3.1715481  0.014340098   -4.3746539    1.2031058      1024000 
  385000   0.80323353   -4.3732263   -4.3732263   -3.1683784  0.011526499   -4.3732263    1.2048478      1024000 
  386000   0.80401483   -4.3725608   -4.3725608    -3.166541  0.015397183   -4.3725608    1.2060198      1024000 
  387000   0.80395273   -4.3708661   -4.3708661   -3.1649394  0.019389641   -4.3708661    1.2059267      1024000 
  388000   0.80384205   -4.3691427   -4.3691427   -3.1633821  0.014352106   -4.3691427    1.2057606      1024000 
  389000   0.80392687   -4.3669446   -4.3669446   -3.1610567  0.019474571   -4.3669446    1.2058879      1024000 
  390000   0.80533586   -4.3688337   -4.3688337   -3.1608324   0.01162224   -4.3688337    1.2080013      1024000 
  391000   0.80479616   -4.3659665   -4.3659665   -3.1587747  0.014919809   -4.3659665    1.2071918      1024000 
  392000   0.80385026   -4.3635804   -4.3635804   -3.1578074  0.018434956   -4.3635804    1.2057729      1024000 
  393000   0.80415502   -4.3621577   -4.3621577   -3.1559276  0.016579571   -4.3621577    1.2062301      1024000 
  394000   0.80501557    -4.361038    -4.361038   -3.1535171  0.011536997    -4.361038    1.2075209      1024000 
  395000   0.80511893   -4.3589974   -4.3589974   -3.1513215  0.014517478   -4.3589974     1.207676      1024000 
  396000   0.80546468   -4.3577868   -4.3577868   -3.1495922   0.01349813   -4.3577868    1.2081946      1024000 
  397000   0.80575692    -4.356785    -4.356785   -3.1481521 0.0091306625    -4.356785    1.2086329      1024000 
  398000   0.80565527    -4.354109    -4.354109   -3.1456285   0.01293966    -4.354109    1.2084805      1024000 
  399000   0.80621173   -4.3523062   -4.3523062   -3.1429911  0.016880586   -4.3523062    1.2093151      1024000 
  400000   0.80671093    -4.349726    -4.349726   -3.1396621  0.020009918    -4.349726    1.2100639      1024000 
  401000   0.80934951   -4.3521414   -4.3521414   -3.1381196  0.015797686   -4.3521414    1.2140218      1024000 
  402000   0.80774566   -4.3492492   -4.3492492   -3.1376332  0.018633068   -4.3492492     1.211616      1024000 
  403000   0.80950506   -4.3490039   -4.3490039   -3.1347487  0.019841455   -4.3490039    1.2142551      1024000 
  404000   0.81026324   -4.3483123   -4.3483123   -3.1329199  0.014794157   -4.3483123    1.2153924      1024000 
  405000   0.80903075   -4.3446605   -4.3446605   -3.1311168  0.019072948   -4.3446605    1.2135437      1024000 
  406000   0.81132683   -4.3454033   -4.3454033   -3.1284156  0.018205241   -4.3454033    1.2169878      1024000 
  407000   0.81056932   -4.3415135   -4.3415135    -3.125662  0.017913033   -4.3415135    1.2158515      1024000 
  408000   0.81057375   -4.3397023   -4.3397023   -3.1238441  0.019551034   -4.3397023    1.2158582      1024000 
  409000   0.81052374   -4.3374746   -4.3374746   -3.1216914  0.020469263   -4.3374746    1.2157831      1024000 
  410000    0.8099214   -4.3350864   -4.3350864   -3.1202068  0.014730967   -4.3350864    1.2148796      1024000 
  411000   0.81010763   -4.3328613   -4.3328613   -3.1177024  0.013714951   -4.3328613     1.215159      1024000 
  412000   0.81132494   -4.3325039   -4.3325039   -3.1155189  0.016789803   -4.3325039    1.2169849      1024000 
  413000   0.81162087   -4.3321386   -4.3321386   -3.1147098  0.013063085   -4.3321386    1.2174288      1024000 
  414000   0.81080116   -4.3291172   -4.3291172   -3.1129179  0.013292552   -4.3291172    1.2161993      1024000 
  415000   0.81211908   -4.3287417   -4.3287417   -3.1105655  0.016428937   -4.3287417    1.2181761      1024000 
  416000   0.81275205   -4.3275048   -4.3275048   -3.1083792  0.014941862   -4.3275048    1.2191256      1024000 
  417000   0.81280857   -4.3245806   -4.3245806   -3.1053702  0.014236874   -4.3245806    1.2192104      1024000 
  418000   0.81261813    -4.321439    -4.321439   -3.1025142   0.02162365    -4.321439    1.2189247      1024000 
  419000   0.81310682    -4.320705    -4.320705   -3.1010472  0.016380343    -4.320705    1.2196578      1024000 
  420000   0.81296076   -4.3181809   -4.3181809   -3.0987422  0.015687254   -4.3181809    1.2194387      1024000 
  421000   0.81506061   -4.3187881   -4.3187881   -3.0961997  0.014700307   -4.3187881    1.2225884      1024000 
  422000   0.81555233     -4.31702     -4.31702    -3.093694  0.017875341     -4.31702     1.223326      1024000 
  423000    0.8153967   -4.3158001   -4.3158001   -3.0927075  0.013170647   -4.3158001    1.2230926      1024000 
  424000   0.81419104   -4.3123034   -4.3123034   -3.0910193  0.017845149   -4.3123034    1.2212841      1024000 
  425000   0.81527229   -4.3110126   -4.3110126   -3.0881066   0.01257837   -4.3110126     1.222906      1024000 
  426000   0.81484214   -4.3092718   -4.3092718    -3.087011  0.016365374   -4.3092718    1.2222607      1024000 
  427000   0.81482901   -4.3075026   -4.3075026   -3.0852615   0.01220952   -4.3075026     1.222241      1024000 
  428000   0.81490235   -4.3059624   -4.3059624   -3.0836113   0.01389936   -4.3059624     1.222351      1024000 
  429000   0.81655548   -4.3057515   -4.3057515   -3.0809207  0.014045574   -4.3057515    1.2248307      1024000 
  430000   0.81657191   -4.3042941   -4.3042941   -3.0794387 0.0091408473   -4.3042941    1.2248554      1024000 
  431000   0.81630124   -4.3023568   -4.3023568   -3.0779074 0.0089756762   -4.3023568    1.2244494      1024000 
  432000   0.81497249   -4.2994304   -4.2994304   -3.0769742  0.010462211   -4.2994304    1.2224563      1024000 
  433000   0.81620425    -4.299057    -4.299057   -3.0747531 0.0077194736    -4.299057    1.2243039      1024000 
  434000   0.81717007   -4.2985857   -4.2985857   -3.0728331  0.012635814   -4.2985857    1.2257526      1024000 
  435000   0.81672356   -4.2964604   -4.2964604   -3.0713776 0.0098738008   -4.2964604    1.2250828      1024000 
  436000   0.81657415    -4.293955    -4.293955   -3.0690963 0.0062414842    -4.293955    1.2248587      1024000 
  437000   0.81731816   -4.2923016   -4.2923016   -3.0663269 0.0085359109   -4.2923016    1.2259747      1024000 
  438000   0.81750001   -4.2913716   -4.2913716   -3.0651241 0.0058999094   -4.2913716    1.2262475      1024000 
  439000   0.81718284   -4.2888737   -4.2888737   -3.0631019  0.013506949   -4.2888737    1.2257718      1024000 
  440000   0.81898584    -4.289341    -4.289341   -3.0608647  0.011175869    -4.289341    1.2284763      1024000 
  441000   0.81926798   -4.2871512   -4.2871512   -3.0582517  0.014484666   -4.2871512    1.2288995      1024000 
  442000   0.82038247   -4.2873874   -4.2873874   -3.0568162 0.0084701597   -4.2873874    1.2305712      1024000 
  443000   0.82089418    -4.286841    -4.286841   -3.0555022  0.012167374    -4.286841    1.2313388      1024000 
  444000   0.82082207   -4.2839443   -4.2839443   -3.0527137  0.019259022   -4.2839443    1.2312306      1024000 
  445000   0.82238375   -4.2840156   -4.2840156   -3.0504425  0.017862579   -4.2840156    1.2335731      1024000 
  446000   0.82244427   -4.2818694   -4.2818694   -3.0482055  0.019464659   -4.2818694    1.2336639      1024000 
  447000   0.82330498   -4.2807817   -4.2807817   -3.0458268  0.022214311   -4.2807817     1.234955      1024000 
  448000   0.82301138   -4.2777498   -4.2777498   -3.0432352  0.023290226   -4.2777498    1.2345146      1024000 
  449000   0.82429279   -4.2780154   -4.2780154   -3.0415788  0.017733869   -4.2780154    1.2364367      1024000 
  450000   0.82362216   -4.2756297   -4.2756297   -3.0401989  0.021285519   -4.2756297    1.2354307      1024000 
  451000   0.82478806   -4.2751538   -4.2751538   -3.0379743  0.022883663   -4.2751538    1.2371796      1024000 
  452000   0.82521401   -4.2742094   -4.2742094   -3.0363909   0.01430109   -4.2742094    1.2378185      1024000 
  453000   0.82507272   -4.2724738   -4.2724738   -3.0348673  0.013708354   -4.2724738    1.2376066      1024000 
  454000    0.8246547   -4.2693611   -4.2693611   -3.0323815  0.015971062   -4.2693611    1.2369795      1024000 
  455000   0.82500273     -4.26837     -4.26837   -3.0308684  0.019816536     -4.26837    1.2375016      1024000 
  456000   0.82517653   -4.2665313   -4.2665313    -3.028769  0.014042349   -4.2665313    1.2377623      1024000 
  457000   0.82620736   -4.2660385   -4.2660385     -3.02673  0.016438992   -4.2660385    1.2393085      1024000 
  458000   0.82591661   -4.2631413   -4.2631413   -3.0242689  0.019579337   -4.2631413    1.2388724      1024000 
  459000   0.82609701   -4.2617542   -4.2617542   -3.0226112  0.018266822   -4.2617542     1.239143      1024000 
  460000   0.82663031   -4.2601799   -4.2601799    -3.020237  0.023029374   -4.2601799     1.239943      1024000 
  461000   0.82649872   -4.2585622   -4.2585622   -3.0188166  0.022428551   -4.2585622    1.2397456      1024000 
  462000   0.82625966   -4.2564978   -4.2564978   -3.0171109  0.025702746   -4.2564978     1.239387      1024000 
  463000   0.82723465   -4.2560515   -4.2560515    -3.015202  0.021370074   -4.2560515    1.2408495      1024000 
  464000   0.82739232   -4.2541909   -4.2541909    -3.013105  0.023154848   -4.2541909     1.241086      1024000 
  465000   0.82744563   -4.2519975   -4.2519975   -3.0108316   0.02007653   -4.2519975    1.2411659      1024000 
  466000   0.82734113   -4.2513882   -4.2513882    -3.010379  0.011270471   -4.2513882    1.2410092      1024000 
  467000   0.82718021   -4.2495734   -4.2495734   -3.0088056  0.010725319   -4.2495734    1.2407678      1024000 
  468000   0.82614803   -4.2458895   -4.2458895   -3.0066699  0.013008521   -4.2458895    1.2392195      1024000 
  469000   0.82780277   -4.2457989   -4.2457989   -3.0040973  0.013116044   -4.2457989    1.2417016      1024000 
  470000   0.82798367   -4.2435015   -4.2435015   -3.0015285  0.011174717   -4.2435015     1.241973      1024000 
  471000   0.82756771   -4.2414204   -4.2414204   -3.0000714  0.013171584   -4.2414204     1.241349      1024000 
  472000   0.82871234   -4.2405839   -4.2405839   -2.9975179  0.012399927   -4.2405839     1.243066      1024000 
  473000   0.82917229   -4.2388341   -4.2388341   -2.9950782  0.010734272   -4.2388341    1.2437559      1024000 
  474000   0.83032228   -4.2390145   -4.2390145   -2.9935336  0.012846362   -4.2390145    1.2454809      1024000 
  475000   0.83059185   -4.2367949   -4.2367949   -2.9909097  0.015321624   -4.2367949    1.2458853      1024000 
  476000   0.83105865   -4.2350162   -4.2350162   -2.9884307  0.022905157   -4.2350162    1.2465855      1024000 
  477000   0.83087838   -4.2327842   -4.2327842   -2.9864691  0.021561273   -4.2327842     1.246315      1024000 
  478000   0.83294607   -4.2324461   -4.2324461   -2.9830295  0.014328162   -4.2324461    1.2494166      1024000 
  479000   0.83299118   -4.2300441   -4.2300441   -2.9805599  0.018985923   -4.2300441    1.2494842      1024000 
  480000   0.83387724   -4.2290004   -4.2290004    -2.978187  0.016845437   -4.2290004    1.2508133      1024000 
  481000   0.83383058    -4.226848    -4.226848   -2.9761046  0.014317379    -4.226848    1.2507433      1024000 
  482000   0.83363837   -4.2243108   -4.2243108   -2.9738558  0.015435341   -4.2243108     1.250455      1024000 
  483000   0.83267469   -4.2208242   -4.2208242   -2.9718147  0.022230003   -4.2208242    1.2490095      1024000 
  484000   0.83252171   -4.2197725   -4.2197725   -2.9709925  0.017515428   -4.2197725      1.24878      1024000 
  485000   0.83311997   -4.2186613   -4.2186613   -2.9689839   0.01487099   -4.2186613    1.2496774      1024000 
  486000   0.83177148   -4.2147654   -4.2147654   -2.9671107  0.017604701   -4.2147654    1.2476547      1024000 
  487000   0.83391615   -4.2149662   -4.2149662   -2.9640945  0.011620041   -4.2149662    1.2508717      1024000 
  488000   0.83391538   -4.2119831   -4.2119831   -2.9611126   0.01079548   -4.2119831    1.2508705      1024000 
  489000   0.83435389   -4.2111963   -4.2111963    -2.959668  0.014338607   -4.2111963    1.2515283      1024000 
  490000    0.8336582   -4.2087039   -4.2087039   -2.9582191  0.013948162   -4.2087039    1.2504848      1024000 
  491000     0.832815    -4.206127    -4.206127    -2.956907  0.016985815    -4.206127      1.24922      1024000 
  492000   0.83429995   -4.2063979   -4.2063979   -2.9549505  0.016796053   -4.2063979    1.2514474      1024000 
  493000   0.83399654   -4.2040502   -4.2040502    -2.953058  0.015281316   -4.2040502    1.2509923      1024000 
  494000    0.8349754   -4.2028294   -4.2028294   -2.9503689  0.013396878   -4.2028294    1.2524606      1024000 
  495000   0.83532529   -4.1997294   -4.1997294    -2.946744   0.01710298   -4.1997294    1.2529854      1024000 
  496000   0.83487541   -4.1971825   -4.1971825   -2.9448719  0.016025999   -4.1971825    1.2523106      1024000 
  497000   0.83501289   -4.1944782   -4.1944782   -2.9419614  0.014826193   -4.1944782    1.2525168      1024000 
  498000   0.83643224   -4.1945124   -4.1945124   -2.9398665  0.015963978   -4.1945124    1.2546458      1024000 
  499000   0.83640751   -4.1929513   -4.1929513   -2.9383425  0.011279957   -4.1929513    1.2546087      1024000 
  500000   0.83578754   -4.1896686   -4.1896686   -2.9359898  0.013762291   -4.1896686    1.2536788      1024000 
  501000   0.83696486   -4.1897046   -4.1897046   -2.9342599  0.014588428   -4.1897046    1.2554447      1024000 
  502000   0.83712303   -4.1876465   -4.1876465   -2.9319645  0.013308489   -4.1876465     1.255682      1024000 
  503000   0.83831905   -4.1871289   -4.1871289   -2.9296529  0.016891686   -4.1871289     1.257476      1024000 
  504000   0.83908649   -4.1857774   -4.1857774   -2.9271502  0.014762075   -4.1857774    1.2586272      1024000 
  505000   0.83903963   -4.1832782   -4.1832782   -2.9247213  0.019838328   -4.1832782    1.2585569      1024000 
  506000    0.8405278   -4.1836463   -4.1836463   -2.9228571  0.012836623   -4.1836463    1.2607891      1024000 
  507000   0.84006692   -4.1804412   -4.1804412   -2.9203434  0.017548503   -4.1804412    1.2600978      1024000 
  508000    0.8405485   -4.1796948   -4.1796948   -2.9188746  0.017400139   -4.1796948    1.2608202      1024000 
  509000   0.84149898   -4.1783046   -4.1783046   -2.9160587  0.022631313   -4.1783046    1.2622459      1024000 
  510000   0.84139641   -4.1766578   -4.1766578   -2.9145657  0.026049235   -4.1766578    1.2620921      1024000 
  511000   0.84154196   -4.1757782   -4.1757782   -2.9134678  0.015799547   -4.1757782    1.2623104      1024000 
  512000     0.841302   -4.1736115   -4.1736115   -2.9116611  0.020167887   -4.1736115    1.2619504      1024000 
  513000   0.84068488   -4.1704165   -4.1704165   -2.9093918  0.014088954   -4.1704165    1.2610248      1024000 
  514000   0.84067469   -4.1680837   -4.1680837   -2.9070743  0.016985418   -4.1680837    1.2610095      1024000 
  515000   0.84288541   -4.1687585   -4.1687585   -2.9044329  0.011053101   -4.1687585    1.2643255      1024000 
  516000   0.84194874   -4.1644164   -4.1644164   -2.9014958   0.02062853   -4.1644164    1.2629206      1024000 
  517000   0.84179296   -4.1623832   -4.1623832   -2.8996963  0.015456663   -4.1623832    1.2626869      1024000 
  518000   0.84109227   -4.1598528   -4.1598528    -2.898217  0.016330917   -4.1598528    1.2616359      1024000 
  519000   0.84113113   -4.1580632   -4.1580632    -2.896369  0.015734601   -4.1580632    1.2616941      1024000 
  520000   0.84186972   -4.1572451   -4.1572451   -2.8944431  0.014574981   -4.1572451     1.262802      1024000 
  521000    0.8419924   -4.1557028   -4.1557028   -2.8927168  0.013512146   -4.1557028     1.262986      1024000 
  522000   0.84337206   -4.1551068   -4.1551068   -2.8900513  0.015093464   -4.1551068    1.2650555      1024000 
  523000   0.84368971   -4.1529549   -4.1529549   -2.8874229  0.016245729   -4.1529549     1.265532      1024000 
  524000   0.84448008   -4.1511419   -4.1511419   -2.8844243  0.019742957   -4.1511419    1.2667175      1024000 
  525000   0.84494997    -4.150172    -4.150172   -2.8827496  0.022238881    -4.150172    1.2674224      1024000 
  526000   0.84479772   -4.1479221   -4.1479221   -2.8807281  0.021024558   -4.1479221     1.267194      1024000 
  527000   0.84501218   -4.1456914   -4.1456914   -2.8781757  0.027266168   -4.1456914    1.2675157      1024000 
  528000   0.84609295    -4.145472    -4.145472   -2.8763352  0.019886055    -4.145472    1.2691368      1024000 
  529000   0.84656357   -4.1440045   -4.1440045   -2.8741617  0.019546495   -4.1440045    1.2698428      1024000 
  530000   0.84715921   -4.1416458   -4.1416458   -2.8709096   0.02119431   -4.1416458    1.2707362      1024000 
  531000   0.84753708   -4.1409708   -4.1409708   -2.8696677  0.014298787   -4.1409708     1.271303      1024000 
  532000   0.84740461    -4.137721    -4.137721   -2.8666167   0.02120038    -4.137721    1.2711043      1024000 
  533000   0.84789399   -4.1360253   -4.1360253   -2.8641869  0.019669567   -4.1360253    1.2718384      1024000 
  534000   0.84787434   -4.1336167   -4.1336167   -2.8618078  0.018179014   -4.1336167    1.2718089      1024000 
  535000   0.84784485   -4.1329403   -4.1329403   -2.8611756  0.016001939   -4.1329403    1.2717647      1024000 
  536000   0.84718949   -4.1282039   -4.1282039   -2.8574222  0.024623883   -4.1282039    1.2707817      1024000 
  537000   0.84863157   -4.1284717   -4.1284717    -2.855527  0.018399542   -4.1284717    1.2729448      1024000 
  538000   0.84920974   -4.1278156   -4.1278156   -2.8540036  0.017953844   -4.1278156     1.273812      1024000 
  539000   0.85042416   -4.1254712   -4.1254712   -2.8498375  0.019832615   -4.1254712    1.2756337      1024000 
  540000   0.85047052   -4.1239111   -4.1239111    -2.848208   0.02110849   -4.1239111    1.2757032      1024000 
  541000   0.84985326   -4.1212555   -4.1212555   -2.8464782   0.02348344   -4.1212555    1.2747773      1024000 
  542000   0.85033514    -4.121107    -4.121107   -2.8456069  0.024795433    -4.121107    1.2755001      1024000 
  543000   0.85137773   -4.1192221   -4.1192221   -2.8421581  0.022501121   -4.1192221     1.277064      1024000 
  544000   0.84977863   -4.1141583   -4.1141583    -2.839493  0.027971616   -4.1141583    1.2746654      1024000 
  545000   0.85143856   -4.1150869   -4.1150869   -2.8379316  0.022763885   -4.1150869    1.2771553      1024000 
  546000   0.85188726   -4.1128994   -4.1128994   -2.8350711  0.024387129   -4.1128994    1.2778283      1024000 
  547000   0.85143389    -4.110515    -4.110515   -2.8333668  0.021248009    -4.110515    1.2771482      1024000 
  548000   0.85173092   -4.1091961   -4.1091961   -2.8316023  0.024117656   -4.1091961    1.2775938      1024000 
  549000   0.84976866    -4.104552    -4.104552   -2.8299016  0.027831397    -4.104552    1.2746504      1024000 
  550000   0.85035144   -4.1038081   -4.1038081   -2.8282835  0.025519678   -4.1038081    1.2755246      1024000 
  551000   0.85142852   -4.1027282   -4.1027282    -2.825588  0.019192116   -4.1027282    1.2771402      1024000 
  552000    0.8512736   -4.1013321   -4.1013321   -2.8244243  0.022127906   -4.1013321    1.2769078      1024000 
  553000   0.85094069   -4.0986629   -4.0986629   -2.8222545  0.024160155   -4.0986629    1.2764084      1024000 
  554000     0.851611   -4.0968112   -4.0968112   -2.8193973  0.023603443   -4.0968112    1.2774139      1024000 
  555000   0.85052017   -4.0925337   -4.0925337    -2.816756  0.026109856   -4.0925337    1.2757777      1024000 
  556000   0.85184719   -4.0923407   -4.0923407   -2.8145725  0.018740496   -4.0923407    1.2777682      1024000 
  557000   0.85295159   -4.0902688   -4.0902688   -2.8108441   0.01835625   -4.0902688    1.2794248      1024000 
  558000   0.85285781   -4.0875681   -4.0875681    -2.808284  0.026971888   -4.0875681    1.2792841      1024000 
  559000   0.85462754   -4.0885018   -4.0885018   -2.8065631  0.019822471   -4.0885018    1.2819387      1024000 
  560000    0.8556486   -4.0871638   -4.0871638   -2.8036935   0.02130077   -4.0871638    1.2834703      1024000 
  561000   0.85474876   -4.0842149   -4.0842149   -2.8020944  0.025287582   -4.0842149    1.2821205      1024000 
  562000   0.85462264   -4.0827134   -4.0827134   -2.8007821  0.027165087   -4.0827134    1.2819314      1024000 
  563000   0.85482265   -4.0810919   -4.0810919   -2.7988605  0.031096637   -4.0810919    1.2822314      1024000 
  564000    0.8567975   -4.0808256   -4.0808256    -2.795632  0.030701172   -4.0808256    1.2851936      1024000 
  565000   0.85694407   -4.0789335   -4.0789335   -2.7935201  0.030942756   -4.0789335    1.2854135      1024000 
  566000   0.85723247   -4.0771586   -4.0771586   -2.7913125  0.032561434   -4.0771586    1.2858461      1024000 
  567000   0.85656207   -4.0741199   -4.0741199   -2.7892794  0.033074011   -4.0741199    1.2848405      1024000 
  568000   0.85706857   -4.0719547   -4.0719547   -2.7863544  0.029191477   -4.0719547    1.2856002      1024000 
  569000    0.8573449   -4.0695737   -4.0695737   -2.7835589  0.030346439   -4.0695737    1.2860147      1024000 
  570000   0.85761709   -4.0678324   -4.0678324   -2.7814094  0.025104113   -4.0678324     1.286423      1024000 
  571000   0.85781237   -4.0663184   -4.0663184   -2.7796025  0.029128794   -4.0663184    1.2867159      1024000 
  572000   0.85849847   -4.0656155   -4.0656155   -2.7778704  0.027911792   -4.0656155    1.2877451      1024000 
  573000   0.85807915    -4.063542    -4.063542   -2.7764259   0.02187087    -4.063542    1.2871161      1024000 
  574000   0.85839164   -4.0617599   -4.0617599   -2.7741751  0.027848469   -4.0617599    1.2875849      1024000 
  575000   0.85947104   -4.0613812   -4.0613812   -2.7721773  0.020696502   -4.0613812    1.2892039      1024000 
  576000   0.85880182   -4.0574646   -4.0574646   -2.7692645  0.025858513   -4.0574646    1.2882001      1024000 
  577000   0.85912842   -4.0558717   -4.0558717   -2.7671817  0.030849718   -4.0558717      1.28869      1024000 
  578000   0.85936101   -4.0536404   -4.0536404   -2.7646015  0.032856332   -4.0536404    1.2890389      1024000 
  579000   0.86123528   -4.0541651   -4.0541651   -2.7623148  0.026936645   -4.0541651    1.2918503      1024000 
  580000   0.86043745   -4.0509194   -4.0509194   -2.7602658  0.032989101   -4.0509194    1.2906536      1024000 
  581000   0.86101083   -4.0492353   -4.0492353   -2.7577217   0.02950821   -4.0492353    1.2915136      1024000 
  582000   0.86348002   -4.0508648   -4.0508648   -2.7556474  0.023374923   -4.0508648    1.2952174      1024000 
  583000   0.86210906   -4.0469806   -4.0469806   -2.7538196  0.034768877   -4.0469806     1.293161      1024000 
  584000   0.86099896   -4.0433889   -4.0433889    -2.751893  0.029931342   -4.0433889    1.2914958      1024000 
  585000   0.86323593   -4.0436969   -4.0436969   -2.7488457  0.030070172   -4.0436969    1.2948513      1024000 
  586000   0.86192952   -4.0403181   -4.0403181   -2.7474264  0.034075557   -4.0403181    1.2928917      1024000 
  587000   0.86169289   -4.0374095   -4.0374095   -2.7448727   0.03263376   -4.0374095    1.2925367      1024000 
  588000   0.86178317   -4.0352855   -4.0352855   -2.7426133   0.03045639   -4.0352855    1.2926721      1024000 
  589000   0.86345395   -4.0345989   -4.0345989   -2.7394206  0.033265727   -4.0345989    1.2951783      1024000 
  590000   0.86373441   -4.0335853   -4.0335853   -2.7379863  0.035912153   -4.0335853     1.295599      1024000 
  591000   0.86371193   -4.0320463   -4.0320463    -2.736481  0.035827792   -4.0320463    1.2955653      1024000 
  592000   0.86573659   -4.0329771   -4.0329771   -2.7343748   0.03435109   -4.0329771    1.2986023      1024000 
  593000     0.865008   -4.0301623   -4.0301623    -2.732653  0.037639679   -4.0301623    1.2975094      1024000 
  594000   0.86425878   -4.0279065   -4.0279065    -2.731521  0.034088967   -4.0279065    1.2963855      1024000 
  595000   0.86486263   -4.0257093   -4.0257093    -2.728418  0.044403223   -4.0257093    1.2972913      1024000 
  596000   0.86673748   -4.0267866   -4.0267866    -2.726683  0.039186375   -4.0267866    1.3001036      1024000 
  597000   0.86525931   -4.0222054   -4.0222054    -2.724319  0.042478578   -4.0222054    1.2978863      1024000 
  598000   0.86620984   -4.0217155   -4.0217155   -2.7224034  0.041323504   -4.0217155    1.2993121      1024000 
  599000   0.86612543   -4.0198641   -4.0198641   -2.7206786  0.039061878   -4.0198641    1.2991855      1024000 
  600000   0.86713161   -4.0183699   -4.0183699   -2.7176752  0.043425818   -4.0183699    1.3006948      1024000 
  601000    0.8682527   -4.0181431   -4.0181431   -2.7157667  0.040565951   -4.0181431    1.3023764      1024000 
  602000   0.86704813   -4.0147019   -4.0147019   -2.7141324  0.043049328   -4.0147019    1.3005696      1024000 
  603000   0.86750052    -4.013854    -4.013854   -2.7126059  0.044829725    -4.013854    1.3012481      1024000 
  604000   0.86791039   -4.0124261   -4.0124261   -2.7105631  0.041567382   -4.0124261    1.3018629      1024000 
  605000   0.86786469   -4.0107454   -4.0107454    -2.708951  0.040607515   -4.0107454    1.3017944      1024000 
  606000   0.86882575   -4.0106569   -4.0106569   -2.7074209  0.041493706   -4.0106569     1.303236      1024000 
  607000    0.8683804   -4.0088694   -4.0088694   -2.7063015  0.041779404   -4.0088694     1.302568      1024000 
  608000   0.86773487   -4.0056675   -4.0056675   -2.7040679  0.041679063   -4.0056675    1.3015997      1024000 
  609000   0.86795301   -4.0036956   -4.0036956   -2.7017687  0.039354936   -4.0036956    1.3019269      1024000 
  610000   0.86796875   -4.0013561   -4.0013561   -2.6994056  0.037387978   -4.0013561    1.3019505      1024000 
  611000    0.8683789   -4.0000135   -4.0000135   -2.6974478  0.038532662   -4.0000135    1.3025657      1024000 
  612000    0.8704046   -4.0003323   -4.0003323   -2.6947281  0.044511427   -4.0003323    1.3056042      1024000 
  613000   0.86983141   -3.9979502   -3.9979502   -2.6932058  0.040884766   -3.9979502    1.3047445      1024000 
  614000   0.87092915   -3.9980781   -3.9980781    -2.691687  0.044305474   -3.9980781    1.3063911      1024000 
  615000   0.87188449   -3.9971017   -3.9971017   -2.6892776  0.043147547   -3.9971017    1.3078241      1024000 
  616000   0.87241987   -3.9959548   -3.9959548   -2.6873276  0.044203841   -3.9959548    1.3086272      1024000 
  617000   0.87125905   -3.9928947   -3.9928947   -2.6860087   0.04650605   -3.9928947    1.3068859      1024000 
  618000    0.8724396   -3.9930268   -3.9930268   -2.6843701  0.046389653   -3.9930268    1.3086567      1024000 
  619000   0.87234404   -3.9913619   -3.9913619   -2.6828485   0.04564465   -3.9913619    1.3085134      1024000 
  620000    0.8724696   -3.9899721   -3.9899721   -2.6812704  0.045193391   -3.9899721    1.3087018      1024000 
  621000   0.87424681   -3.9903042   -3.9903042   -2.6789366  0.046208692   -3.9903042    1.3113676      1024000 
  622000   0.87385481    -3.987361    -3.987361   -2.6765814  0.049803957    -3.987361    1.3107796      1024000 
  623000   0.87471157    -3.986265    -3.986265   -2.6742003  0.050710293    -3.986265    1.3120647      1024000 
  624000   0.87505252   -3.9849221   -3.9849221    -2.672346  0.048229808   -3.9849221    1.3125761      1024000 
  625000   0.87393017   -3.9826737   -3.9826737   -2.6717811  0.049289992   -3.9826737    1.3108926      1024000 
  626000   0.87445032   -3.9818505   -3.9818505   -2.6701777  0.046449698   -3.9818505    1.3116728      1024000 
  627000   0.87491024   -3.9805646   -3.9805646   -2.6682019  0.051444244   -3.9805646    1.3123627      1024000 
  628000   0.87539339   -3.9790413   -3.9790413   -2.6659539  0.051068694   -3.9790413    1.3130874      1024000 
  629000   0.87572958   -3.9781174   -3.9781174   -2.6645257  0.054521758   -3.9781174    1.3135917      1024000 
  630000   0.87591901   -3.9766008   -3.9766008   -2.6627249  0.049109383   -3.9766008    1.3138758      1024000 
  631000   0.87625494   -3.9747537   -3.9747537   -2.6603739  0.050973611   -3.9747537    1.3143797      1024000 
  632000   0.87764909   -3.9754875   -3.9754875   -2.6590165  0.045023588   -3.9754875     1.316471      1024000 
  633000   0.87645336   -3.9722901   -3.9722901   -2.6576127  0.051030486   -3.9722901    1.3146774      1024000 
  634000   0.87635185   -3.9702723   -3.9702723   -2.6557472   0.05142652   -3.9702723    1.3145251      1024000 
  635000   0.87728435   -3.9691641   -3.9691641   -2.6532402  0.049154716   -3.9691641    1.3159239      1024000 
  636000   0.87814027   -3.9691309   -3.9691309   -2.6519232  0.046301065   -3.9691309    1.3172077      1024000 
  637000    0.8779207   -3.9675148   -3.9675148   -2.6506364   0.05212895   -3.9675148    1.3168784      1024000 
  638000   0.87757028   -3.9653682   -3.9653682   -2.6490154  0.047866117   -3.9653682    1.3163528      1024000 
  639000   0.87789252   -3.9642796   -3.9642796   -2.6474435  0.050192418   -3.9642796    1.3168361      1024000 
  640000   0.87721721   -3.9612602   -3.9612602    -2.645437  0.050531461   -3.9612602    1.3158232      1024000 
  641000   0.87797781   -3.9607112   -3.9607112   -2.6437472  0.051550933   -3.9607112     1.316964      1024000 
  642000   0.87915257   -3.9607844   -3.9607844   -2.6420582  0.048371889   -3.9607844    1.3187262      1024000 
  643000   0.87916756   -3.9594328   -3.9594328   -2.6406841  0.050725848   -3.9594328    1.3187487      1024000 
  644000   0.87972945   -3.9585278   -3.9585278   -2.6389363  0.048886545   -3.9585278    1.3195915      1024000 
  645000   0.87908773   -3.9554041   -3.9554041   -2.6367752  0.055743731   -3.9554041    1.3186289      1024000 
  646000   0.88144314   -3.9568927   -3.9568927   -2.6347307   0.05013085   -3.9568927     1.322162      1024000 
  647000   0.88053081   -3.9537132   -3.9537132   -2.6329197  0.059464872   -3.9537132    1.3207935      1024000 
  648000   0.88218205   -3.9550482   -3.9550482   -2.6317778  0.052598659   -3.9550482    1.3232704      1024000 
  649000   0.88096261    -3.951571    -3.951571   -2.6301297  0.056021439    -3.951571    1.3214412      1024000 
  650000   0.88219286   -3.9517093   -3.9517093   -2.6284227  0.055070391   -3.9517093    1.3232866      1024000 
  651000    0.8826453   -3.9504335   -3.9504335   -2.6264682  0.062235564   -3.9504335    1.3239653      1024000 
  652000   0.88355458   -3.9503542   -3.9503542    -2.625025  0.055891075   -3.9503542    1.3253292      1024000 
  653000   0.88306038   -3.9476039   -3.9476039    -2.623016  0.056236179   -3.9476039    1.3245879      1024000 
  654000   0.88376429   -3.9465493   -3.9465493   -2.6209056  0.056745961   -3.9465493    1.3256437      1024000 
  655000   0.88399585   -3.9460674   -3.9460674   -2.6200763   0.05507382   -3.9460674    1.3259911      1024000 
  656000   0.88448988    -3.944766    -3.944766   -2.6180339  0.054603817    -3.944766    1.3267321      1024000 
  657000   0.88404278   -3.9431185   -3.9431185   -2.6170571  0.052781505   -3.9431185    1.3260615      1024000 
  658000   0.88579934   -3.9440418   -3.9440418   -2.6153455  0.050364394   -3.9440418    1.3286963      1024000 
  659000   0.88494363   -3.9414318   -3.9414318    -2.614019  0.054490819   -3.9414318    1.3274127      1024000 
  660000   0.88544702    -3.940403    -3.940403   -2.6122352  0.059038677    -3.940403    1.3281678      1024000 
  661000   0.88591003   -3.9399257   -3.9399257   -2.6110633  0.059515016   -3.9399257    1.3288624      1024000 
  662000   0.88594898    -3.938698    -3.938698   -2.6097773  0.056923891    -3.938698    1.3289208      1024000 
  663000   0.88582874   -3.9369308   -3.9369308   -2.6081904  0.061996067   -3.9369308    1.3287404      1024000 
  664000     0.885747   -3.9351417   -3.9351417   -2.6065239  0.057025841   -3.9351417    1.3286178      1024000 
  665000   0.88578164   -3.9333091   -3.9333091   -2.6046393  0.059496089   -3.9333091    1.3286698      1024000 
  666000   0.88679708   -3.9338408   -3.9338408   -2.6036479  0.056050906   -3.9338408    1.3301929      1024000 
  667000   0.88624126   -3.9308216   -3.9308216   -2.6014624  0.056085634   -3.9308216    1.3293592      1024000 
  668000   0.88781225   -3.9320013   -3.9320013   -2.6002857  0.054282727   -3.9320013    1.3317157      1024000 
  669000   0.88757182   -3.9304091   -3.9304091   -2.5990541  0.058691148   -3.9304091     1.331355      1024000 
  670000   0.88757948   -3.9295274   -3.9295274   -2.5981609  0.052467146   -3.9295274    1.3313665      1024000 
  671000   0.88867563   -3.9296156   -3.9296156   -2.5966049  0.055392695   -3.9296156    1.3330107      1024000 
  672000   0.88883077   -3.9282679   -3.9282679   -2.5950244  0.057580718   -3.9282679    1.3332434      1024000 
  673000   0.88948424   -3.9280156   -3.9280156   -2.5937919  0.058529664   -3.9280156    1.3342237      1024000 
  674000   0.88925782   -3.9263148   -3.9263148   -2.5924308  0.055720338   -3.9263148     1.333884      1024000 
  675000   0.88988534   -3.9257447   -3.9257447   -2.5909194  0.059609535   -3.9257447    1.3348253      1024000 
  676000    0.8896724   -3.9243112   -3.9243112   -2.5898053   0.06508586   -3.9243112    1.3345059      1024000 
  677000   0.89299662   -3.9278279   -3.9278279   -2.5883357  0.061155396   -3.9278279    1.3394922      1024000 
  678000   0.89320708   -3.9268192   -3.9268192   -2.5870113  0.063626877   -3.9268192    1.3398079      1024000 
  679000   0.89301679   -3.9255196   -3.9255196   -2.5859972  0.061213073   -3.9255196    1.3395225      1024000 
  680000   0.89298087   -3.9243601   -3.9243601   -2.5848915  0.060769338   -3.9243601    1.3394686      1024000 
  681000   0.89358332    -3.923631    -3.923631   -2.5832587  0.060559735    -3.923631    1.3403723      1024000 
[...]
  837000   0.90192608   -3.8858401   -3.8858401   -2.5329537  0.057058852   -3.8858401    1.3528864      1024000 
  838000   0.90310122   -3.8868248   -3.8868248   -2.5321757  0.057756066   -3.8868248    1.3546491      1024000 
  839000   0.90369622   -3.8871452   -3.8871452   -2.5316036  0.058729317   -3.8871452    1.3555416      1024000 
  840000   0.90432772   -3.8875551   -3.8875551   -2.5310663   0.06071698   -3.8875551    1.3564888      1024000 
  841000   0.90409279   -3.8867809   -3.8867809   -2.5306444  0.063110055   -3.8867809    1.3561364      1024000 
  842000   0.90409559   -3.8861506   -3.8861506     -2.53001  0.058524926   -3.8861506    1.3561406      1024000 
  843000   0.90434702   -3.8861961   -3.8861961   -2.5296783  0.062382518   -3.8861961    1.3565178      1024000 
  844000   0.90489599   -3.8867172   -3.8867172    -2.529376  0.059296379   -3.8867172    1.3573412      1024000 
  845000   0.90362371   -3.8842548   -3.8842548    -2.528822  0.058017538   -3.8842548    1.3554328      1024000 
  846000   0.90438752   -3.8853164   -3.8853164   -2.5287379  0.062405676   -3.8853164    1.3565785      1024000 
  847000   0.90430455   -3.8844992   -3.8844992   -2.5280451  0.061443451   -3.8844992    1.3564541      1024000 
  848000    0.9041829   -3.8838256   -3.8838256    -2.527554  0.059141986   -3.8838256    1.3562716      1024000 
  849000   0.90426379   -3.8831411   -3.8831411   -2.5267482  0.060326818   -3.8831411    1.3563929      1024000 
  850000   0.90567371   -3.8848002   -3.8848002   -2.5262924  0.054388125   -3.8848002    1.3585078      1024000 
  851000   0.90441605    -3.882361    -3.882361   -2.5257397  0.062312845    -3.882361    1.3566213      1024000 
  852000   0.90436049   -3.8821871   -3.8821871   -2.5256491  0.059861153   -3.8821871     1.356538      1024000 
  853000   0.90661595   -3.8851873   -3.8851873   -2.5252662  0.058547242   -3.8851873    1.3599212      1024000 
  854000   0.90794574   -3.8865132   -3.8865132   -2.5245974  0.068590012   -3.8865132    1.3619158      1024000 
  855000   0.91136317   -3.8911035   -3.8911035   -2.5240615  0.081638998   -3.8911035     1.367042      1024000 
  856000   0.91432488   -3.8955142   -3.8955142   -2.5240297  0.096569681   -3.8955142    1.3714845      1024000 
  857000    0.9195514   -3.9026267   -3.9026267   -2.5233024   0.11455536   -3.9026267    1.3793243      1024000 
  858000   0.92561928   -3.9109921   -3.9109921    -2.522566   0.13381057   -3.9109921    1.3884261      1024000 
  859000   0.92836551   -3.9149288   -3.9149288   -2.5223834   0.15826361   -3.9149288    1.3925454      1024000 
  860000   0.93420013    -3.923677    -3.923677   -2.5223797   0.17992857    -3.923677    1.4012973      1024000 
  861000   0.94050282   -3.9330695   -3.9330695   -2.5223182   0.20113974   -3.9330695    1.4107514      1024000 
  862000   0.94582628   -3.9401587   -3.9401587   -2.5214221   0.22452904   -3.9401587    1.4187365      1024000 
  863000   0.95014347   -3.9460666   -3.9460666   -2.5208543   0.24186161   -3.9460666    1.4252123      1024000 
  864000   0.95379967   -3.9514346   -3.9514346    -2.520738   0.25685172   -3.9514346    1.4306966      1024000 
  865000   0.95719416   -3.9555667   -3.9555667   -2.5197783   0.26262823   -3.9555667    1.4357883      1024000 
  866000   0.95914603   -3.9579474   -3.9579474   -2.5192313   0.25753981   -3.9579474    1.4387161      1024000 
  867000   0.95799695   -3.9556133   -3.9556133   -2.5186208   0.25572065   -3.9556133    1.4369925      1024000 
  868000    0.9550807   -3.9507692   -3.9507692    -2.518151   0.24432046   -3.9507692    1.4326181      1024000 
  869000   0.95134144   -3.9447534   -3.9447534   -2.5177441   0.22956792   -3.9447534    1.4270093      1024000 
  870000   0.94681446    -3.938169    -3.938169   -2.5179502   0.21487537    -3.938169    1.4202188      1024000 
  871000   0.94180183   -3.9302995   -3.9302995   -2.5175996   0.18794269   -3.9302995    1.4126999      1024000 
  872000   0.93653379   -3.9222686   -3.9222686   -2.5174707    0.1699636   -3.9222686    1.4047978      1024000 
  873000   0.93076501   -3.9131974   -3.9131974   -2.5170527   0.14531825   -3.9131974    1.3961447      1024000 
  874000   0.92671296   -3.9068311   -3.9068311   -2.5167645   0.12574211   -3.9068311    1.3900666      1024000 
  875000    0.9211667   -3.8978331   -3.8978331   -2.5160859   0.10805042   -3.8978331    1.3817472      1024000 
  876000   0.91723967   -3.8914529   -3.8914529   -2.5155961  0.091265457   -3.8914529    1.3758567      1024000 
  877000   0.91372628   -3.8858467   -3.8858467     -2.51526  0.074652788   -3.8858467    1.3705866      1024000 
  878000   0.91060623   -3.8807505   -3.8807505   -2.5148439  0.067384272   -3.8807505    1.3659066      1024000 
  879000   0.90735612   -3.8761956   -3.8761956   -2.5151642  0.054255856   -3.8761956    1.3610314      1024000 
  880000   0.90529463   -3.8728984   -3.8728984   -2.5149592  0.042063346   -3.8728984    1.3579392      1024000 
  881000   0.90341357   -3.8705092   -3.8705092   -2.5153916  0.042307302   -3.8705092    1.3551176      1024000 
  882000   0.90334332   -3.8703581   -3.8703581   -2.5153459  0.039198822   -3.8703581    1.3550122      1024000 
  883000   0.90344651   -3.8706751   -3.8706751   -2.5155081   0.03669088   -3.8706751     1.355167      1024000 
  884000   0.90227593   -3.8694741   -3.8694741    -2.516063  0.039113288   -3.8694741    1.3534111      1024000 
  885000   0.90343014   -3.8712729   -3.8712729   -2.5161305   0.04361244   -3.8712729    1.3551425      1024000 
  886000   0.90362022   -3.8713691   -3.8713691   -2.5159415  0.051732772   -3.8713691    1.3554276      1024000 
  887000   0.90385209    -3.872057    -3.872057   -2.5162816  0.051697145    -3.872057    1.3557754      1024000 
  888000   0.90472012   -3.8730471   -3.8730471   -2.5159696  0.052345284   -3.8730471    1.3570774      1024000 
  889000   0.90633712   -3.8753617   -3.8753617   -2.5158587  0.058459731   -3.8753617    1.3595029      1024000 
  890000   0.90732682   -3.8765608   -3.8765608   -2.5155734   0.05084483   -3.8765608    1.3609875      1024000 
  891000   0.90673942   -3.8759794   -3.8759794    -2.515873  0.058689693   -3.8759794    1.3601064      1024000 
  892000   0.90739055    -3.877339    -3.877339   -2.5162559  0.059839132    -3.877339    1.3610831      1024000 
  893000   0.90832638   -3.8785875   -3.8785875   -2.5161007  0.065956609   -3.8785875    1.3624868      1024000 
  894000   0.90797124   -3.8781436   -3.8781436   -2.5161895  0.066056227   -3.8781436    1.3619541      1024000 
  895000   0.90880328   -3.8791708   -3.8791708   -2.5159686  0.064004239   -3.8791708    1.3632022      1024000 
  896000   0.90953657   -3.8802769   -3.8802769   -2.5159748  0.062529325   -3.8802769    1.3643021      1024000 
  897000   0.90923347   -3.8797887   -3.8797887   -2.5159412  0.062502215   -3.8797887    1.3638474      1024000 
  898000   0.90879182   -3.8787011   -3.8787011   -2.5155161  0.061628422   -3.8787011     1.363185      1024000 
  899000   0.90641873   -3.8748537   -3.8748537   -2.5152284  0.063135363   -3.8748537    1.3596253      1024000 
  900000   0.90740673   -3.8758917   -3.8758917   -2.5147843  0.054626562   -3.8758917    1.3611073      1024000 
  901000   0.90716977   -3.8753477   -3.8753477   -2.5145958  0.055588402   -3.8753477    1.3607519      1024000 
  902000   0.90577969   -3.8733017   -3.8733017   -2.5146349  0.057367025   -3.8733017    1.3586668      1024000 
  903000   0.90508188   -3.8724256   -3.8724256   -2.5148056  0.049121148   -3.8724256    1.3576201      1024000 
  904000    0.9043601    -3.871331    -3.871331   -2.5147936  0.047327077    -3.871331    1.3565374      1024000 
  905000   0.90433199   -3.8702668   -3.8702668   -2.5137715  0.044637167   -3.8702668    1.3564952      1024000 
  906000   0.90383014   -3.8701254   -3.8701254   -2.5143829  0.048505228   -3.8701254    1.3557425      1024000 
  907000   0.90309664   -3.8683373   -3.8683373   -2.5136951   0.05292711   -3.8683373    1.3546422      1024000 
  908000   0.90345127   -3.8684321   -3.8684321    -2.513258  0.053146529   -3.8684321    1.3551742      1024000 
  909000     0.904191   -3.8697208   -3.8697208   -2.5134371  0.049612429   -3.8697208    1.3562837      1024000 
  910000   0.90369047   -3.8684115   -3.8684115   -2.5128785  0.053044426   -3.8684115    1.3555329      1024000 
  911000   0.90484013   -3.8698246   -3.8698246   -2.5125671  0.054008413   -3.8698246    1.3572574      1024000 
  912000   0.90509969   -3.8706203   -3.8706203   -2.5129735  0.058430973   -3.8706203    1.3576468      1024000 
  913000   0.90704059    -3.873027    -3.873027   -2.5124688  0.057674469    -3.873027    1.3605581      1024000 
  914000   0.90727208   -3.8731371   -3.8731371   -2.5122317  0.060061021   -3.8731371    1.3609054      1024000 
  915000     0.907413   -3.8729708   -3.8729708    -2.511854  0.061620599   -3.8729708    1.3611167      1024000 
  916000   0.90679339   -3.8717356   -3.8717356   -2.5115483  0.068722909   -3.8717356    1.3601873      1024000 
  917000   0.90929081   -3.8750058   -3.8750058   -2.5110724  0.059795568   -3.8750058    1.3639334      1024000 
  918000   0.90862897   -3.8736329   -3.8736329   -2.5106922  0.060012355   -3.8736329    1.3629407      1024000 
  919000    0.9075988   -3.8728276   -3.8728276   -2.5114322  0.060595386   -3.8728276    1.3613954      1024000 
  920000   0.91040019    -3.876391    -3.876391   -2.5107935  0.057869425    -3.876391    1.3655975      1024000 
  921000    0.9096289   -3.8754881   -3.8754881   -2.5110475  0.058895419   -3.8754881    1.3644406      1024000 
  922000   0.90759442   -3.8721258   -3.8721258   -2.5107369  0.063015415   -3.8721258    1.3613889      1024000 
  923000   0.90595901    -3.869877    -3.869877   -2.5109412  0.060356427    -3.869877    1.3589358      1024000 
  924000   0.90578188   -3.8693921   -3.8693921   -2.5107221  0.055588662   -3.8693921    1.3586701      1024000 
  925000   0.90512144   -3.8682664   -3.8682664    -2.510587  0.053050331   -3.8682664    1.3576794      1024000 
  926000   0.90450641   -3.8670215   -3.8670215   -2.5102646  0.052937165   -3.8670215    1.3567569      1024000 
  927000   0.90511699   -3.8673443   -3.8673443   -2.5096716  0.049063481   -3.8673443    1.3576727      1024000 
  928000   0.90532955   -3.8674273   -3.8674273   -2.5094357  0.052880837   -3.8674273    1.3579916      1024000 
  929000   0.90472208   -3.8659059   -3.8659059   -2.5088255  0.051019116   -3.8659059    1.3570804      1024000 
  930000   0.90528614   -3.8659599   -3.8659599   -2.5080335  0.047229074   -3.8659599    1.3579265      1024000 
  931000   0.90506789   -3.8656626   -3.8656626   -2.5080635   0.04542445   -3.8656626    1.3575991      1024000 
  932000   0.90381361   -3.8639681   -3.8639681   -2.5082505  0.052525576   -3.8639681    1.3557177      1024000 
  933000    0.9047932   -3.8649376   -3.8649376   -2.5077505  0.047969467   -3.8649376     1.357187      1024000 
  934000   0.90452406   -3.8638267   -3.8638267   -2.5070433  0.052019772   -3.8638267    1.3567833      1024000 
  935000   0.90675556   -3.8667499   -3.8667499   -2.5066193  0.051181298   -3.8667499    1.3601306      1024000 
  936000   0.90683166   -3.8665326   -3.8665326   -2.5062879  0.059196887   -3.8665326    1.3602447      1024000 
  937000   0.90758221   -3.8671566   -3.8671566    -2.505786  0.059744231   -3.8671566    1.3613705      1024000 
  938000   0.90822391   -3.8676563   -3.8676563   -2.5053232  0.058574653   -3.8676563    1.3623331      1024000 
  939000   0.91004821   -3.8700237   -3.8700237   -2.5049542  0.061341045   -3.8700237    1.3650695      1024000 
  940000   0.90897187   -3.8677371   -3.8677371   -2.5042821  0.062970488   -3.8677371     1.363455      1024000 
  941000   0.90877061   -3.8672629   -3.8672629   -2.5041098  0.061188887   -3.8672629    1.3631532      1024000 
  942000   0.91058697   -3.8695041   -3.8695041   -2.5036264  0.059996317   -3.8695041    1.3658777      1024000 
  943000   0.90954242   -3.8685229   -3.8685229    -2.504212  0.064594457   -3.8685229    1.3643109      1024000 
  944000   0.90887755   -3.8665588   -3.8665588   -2.5032452  0.068644949   -3.8665588    1.3633136      1024000 
  945000   0.90871158    -3.865999    -3.865999   -2.5029344  0.065102254    -3.865999    1.3630646      1024000 
  946000   0.90963543   -3.8664436   -3.8664436   -2.5019932  0.059318681   -3.8664436    1.3644504      1024000 
  947000   0.90805393   -3.8640077   -3.8640077   -2.5019296  0.062033662   -3.8640077    1.3620781      1024000 
  948000   0.90734139   -3.8625642   -3.8625642   -2.5015549  0.059086894   -3.8625642    1.3610093      1024000 
  949000   0.90742179   -3.8617714   -3.8617714   -2.5006415  0.057650621   -3.8617714    1.3611299      1024000 
  950000    0.9078459   -3.8625016   -3.8625016   -2.5007355  0.058474777   -3.8625016    1.3617661      1024000 
  951000   0.90785322   -3.8624249   -3.8624249   -2.5006478  0.048108229   -3.8624249    1.3617771      1024000 
  952000   0.90647827   -3.8597854   -3.8597854   -2.5000707  0.052989153   -3.8597854    1.3597146      1024000 
  953000   0.90708497   -3.8599614   -3.8599614   -2.4993367  0.047656073   -3.8599614    1.3606247      1024000 
  954000   0.90749715    -3.860134    -3.860134    -2.498891  0.049094803    -3.860134     1.361243      1024000 
  955000   0.90549836    -3.857559    -3.857559   -2.4993142  0.053169225    -3.857559    1.3582448      1024000 
  956000   0.90860403   -3.8616319   -3.8616319   -2.4987286   0.04782588   -3.8616319    1.3629033      1024000 
  957000   0.90693508   -3.8582817   -3.8582817   -2.4978819  0.054077449   -3.8582817    1.3603999      1024000 
  958000   0.90784081   -3.8595358   -3.8595358   -2.4977773  0.054600856   -3.8595358    1.3617584      1024000 
  959000   0.90734344   -3.8581394   -3.8581394    -2.497127  0.062108488   -3.8581394    1.3610124      1024000 
  960000   0.90837823   -3.8593318   -3.8593318   -2.4967672   0.05900095   -3.8593318    1.3625646      1024000 
  961000   0.90873057   -3.8593511   -3.8593511    -2.496258  0.059261871   -3.8593511    1.3630931      1024000 
  962000   0.90840989   -3.8586921   -3.8586921     -2.49608  0.060079099   -3.8586921    1.3626121      1024000 
  963000   0.90995172   -3.8605645   -3.8605645   -2.4956397  0.053972712   -3.8605645    1.3649248      1024000 
  964000   0.91049607   -3.8607476   -3.8607476   -2.4950062   0.05183859   -3.8607476    1.3657413      1024000 
  965000   0.90942796   -3.8587591   -3.8587591     -2.49462  0.060857793   -3.8587591    1.3641392      1024000 
  966000   0.90918944   -3.8577325   -3.8577325   -2.4939511  0.054482588   -3.8577325    1.3637814      1024000 
  967000   0.91013099   -3.8587449   -3.8587449   -2.4935512  0.060063141   -3.8587449    1.3651937      1024000 
  968000   0.91155901   -3.8600671   -3.8600671   -2.4927314  0.058384404   -3.8600671    1.3673357      1024000 
  969000   0.91065309    -3.858725    -3.858725   -2.4927481  0.060585006    -3.858725    1.3659769      1024000 
  970000   0.91078323   -3.8582551   -3.8582551    -2.492083  0.061653831   -3.8582551    1.3661721      1024000 
  971000   0.91014333    -3.856792    -3.856792   -2.4915797  0.059366008    -3.856792    1.3652122      1024000 
  972000   0.91003621   -3.8562853   -3.8562853   -2.4912337  0.058505657   -3.8562853    1.3650516      1024000 
  973000   0.91011946   -3.8561112   -3.8561112   -2.4909347  0.055102237   -3.8561112    1.3651764      1024000 
  974000   0.90849095   -3.8532049   -3.8532049   -2.4904713  0.057230097   -3.8532049    1.3627337      1024000 
  975000   0.90956191   -3.8538653   -3.8538653   -2.4895252  0.054918945   -3.8538653    1.3643401      1024000 
  976000   0.91105823    -3.855324    -3.855324   -2.4887395   0.05326812    -3.855324    1.3665846      1024000 
  977000   0.91096665   -3.8548564   -3.8548564   -2.4884092  0.050491649   -3.8548564    1.3664472      1024000 
  978000   0.90986694   -3.8529778   -3.8529778   -2.4881802  0.054193205   -3.8529778    1.3647976      1024000 
  979000   0.90883833   -3.8513006   -3.8513006   -2.4880459  0.052495276   -3.8513006    1.3632547      1024000 
  980000   0.91062535   -3.8531207   -3.8531207   -2.4871854  0.053001985   -3.8531207    1.3659353      1024000 
  981000   0.91054384   -3.8528851   -3.8528851   -2.4870722  0.050351612   -3.8528851     1.365813      1024000 
  982000   0.91070392   -3.8529425   -3.8529425   -2.4868893  0.057348834   -3.8529425    1.3660531      1024000 
  983000   0.90983589   -3.8512146   -3.8512146   -2.4864635  0.056876517   -3.8512146    1.3647511      1024000 
  984000   0.91091604   -3.8520154   -3.8520154   -2.4856441  0.057907449   -3.8520154    1.3663713      1024000 
  985000   0.91215089   -3.8535433   -3.8535433   -2.4853198  0.059406328   -3.8535433    1.3682236      1024000 
  986000   0.91373419   -3.8553628   -3.8553628   -2.4847643   0.06219222   -3.8553628    1.3705985      1024000 
  987000   0.91343263   -3.8544901   -3.8544901   -2.4843439  0.062048231   -3.8544901    1.3701462      1024000 
  988000   0.91491468   -3.8562706   -3.8562706   -2.4839014  0.068514768   -3.8562706    1.3723692      1024000 
  989000    0.9161958   -3.8574978   -3.8574978   -2.4832069  0.067565193   -3.8574978    1.3742909      1024000 
  990000   0.91728423   -3.8588854   -3.8588854   -2.4829619  0.070421631   -3.8588854    1.3759236      1024000 
  991000   0.91946658   -3.8612422   -3.8612422   -2.4820452  0.081986749   -3.8612422    1.3791971      1024000 
  992000   0.92129863   -3.8633439   -3.8633439   -2.4813988  0.091027521   -3.8633439    1.3819451      1024000 
  993000   0.92471676   -3.8679587   -3.8679587   -2.4808864  0.091732747   -3.8679587    1.3870723      1024000 
  994000   0.92839784   -3.8732925   -3.8732925   -2.4806986   0.10613099   -3.8732925    1.3925939      1024000 
  995000   0.92941329      -3.8742      -3.8742   -2.4800829    0.1246253      -3.8742    1.3941171      1024000 
  996000     0.933558   -3.8798167   -3.8798167   -2.4794826   0.13002615   -3.8798167    1.4003342      1024000 
  997000   0.93797287    -3.886256    -3.886256   -2.4792996    0.1457414    -3.886256    1.4069565      1024000 
  998000   0.94098632      -3.8901      -3.8901   -2.4786234    0.1599625      -3.8901    1.4114766      1024000 
  999000    0.9434832   -3.8934753   -3.8934753   -2.4782534   0.17146393   -3.8934753    1.4152219      1024000 
 1000000   0.94675259   -3.8977267   -3.8977267   -2.4776007   0.18296515   -3.8977267     1.420126      1024000 
Loop time of 13188.5 on 32 procs for 1000000 steps with 492800 atoms

Performance: 16377.881 tau/day, 75.824 timesteps/s
99.3% CPU use with 32 MPI tasks x 1 OpenMP threads

MPI task timing breakdown:
Section |  min time  |  avg time  |  max time  |%varavg|  %CPU | %total
-----------------------------------------------------------------------
Pair    | 4544.2     | 6432.8     | 8573.5     |1402.9 |  99.3 | 48.78
Bond    | 0.34654    | 0.52015    | 0.73765    |  14.2 | 100.0 |  0.00
Neigh   | 1054       | 1457.5     | 1895.1     | 604.5 |  99.8 | 11.05
Comm    | 1922.9     | 4511.2     | 6741.8     |1998.7 |  99.0 | 34.21
Output  | 33.494     | 33.729     | 33.739     |   0.7 |  98.6 |  0.26
Modify  | 187.19     | 344.5      | 894.07     | 988.6 |  99.3 |  2.61
Other   |            | 408.3      |            |       |       |  3.10

Nlocal:        15400.0 ave       15673 max       13686 min
Histogram: 1 0 0 2 0 0 0 0 7 22
Nghost:        12045.3 ave       13650 max        8068 min
Histogram: 4 0 4 0 0 0 0 4 4 16
Neighs:       499183.0 ave      563119 max      246768 min
Histogram: 3 1 0 0 0 0 0 3 9 16

Total # of neighbors = 15973870
Ave neighs/atom = 32.414509
Ave special neighs/atom = 0.0000000
Neighbor list builds = 63544
Dangerous builds = 138
Total wall time: 3:39:49
