LAMMPS (24 Dec 2020)
OMP_NUM_THREADS environment is not set. Defaulting to 1 thread. (src/comm.cpp:94)
  using 1 OpenMP thread(s) per MPI task
# Simple rigid body system
# needed variables: startTemp, temp

units		lj
atom_style	full
dimension 	3
boundary	p p f
pair_style	lj/cut/opt 2.5

variable 	gcmcdisplace	equal 0
variable 	sigma		equal 1.0
variable 	epsilon 	equal 1.0


read_restart	restart.dat.3000000
Reading restart file ...
  restart file = 24 Dec 2020, LAMMPS = 24 Dec 2020
WARNING: Restart file used different # of processors: 48 vs. 192 (src/read_restart.cpp:697)
  restoring atom style full from restart
  orthogonal box = (0.0000000 0.0000000 0.0000000) to (80.000000 80.000000 160.00000)
  6 by 4 by 8 MPI processor grid
  restoring pair style lj/cut/opt from restart
  439061 atoms
Finding 1-2 1-3 1-4 neighbors ...
  special bond factors lj:    0        0        0       
  special bond factors coul:  0        0        0       
     0 = max # of 1-2 neighbors
     0 = max # of 1-3 neighbors
     0 = max # of 1-4 neighbors
     1 = max # of special neighbors
  special bonds CPU = 1.520 seconds
  read_restart CPU = 1.820 seconds

mass		1 1.0
mass		2 1.0
mass		3 1.0


group		solvent type 1
439061 atoms in group solvent


neighbor 	0.4 bin

pair_coeff	1 1 1.0 1.0
pair_coeff	2 2 0.0 0.0
pair_coeff	3 3 0.0 0.0
pair_coeff	2 3 0.0 0.0
pair_coeff	1 2*3 0.0 0.0

pair_modify 	shift yes


balance 	1.05 shift z 10 1.05
Balancing ...
Neighbor list info ...
  update every 1 steps, delay 10 steps, check yes
  max neighbors/atom: 2000, page size: 100000
  master list distance cutoff = 2.9
  ghost atom cutoff = 2.9
  binsize = 1.45, bins = 56 56 111
  1 neighbor lists, perpetual/occasional/extra = 1 0 0
  (1) pair lj/cut/opt, perpetual
      attributes: half, newton on
      pair build: half/bin/newton
      stencil: half/bin/3d/newton
      bin: standard
 rebalancing time: 0.025 seconds
  iteration count = 5
  initial/final maximal load/proc = 3162.0000 2575.0000
  initial/final imbalance factor  = 1.3827327 1.1260394
  x cuts: 0.0000000 0.16666667 0.33333333 0.50000000 0.66666667 0.83333333 1.0000000
  y cuts: 0.0000000 0.25000000 0.50000000 0.75000000 1.0000000
  z cuts: 0.0000000 0.097656250 0.18359375 0.27734375 0.37890625 0.47656250 0.57031250 0.67968750 1.0000000


####################### WALLS ###########################


variable       epsilonWall equal 2*${epsilon}
variable       epsilonWall equal 2*1

variable       cutoffTop   equal   0.7147*${sigma}
variable       cutoffTop   equal   0.7147*1

variable       cutoffLow   equal   3*${sigma}
variable       cutoffLow   equal   3*1


fix            topWall all wall/lj93 zhi EDGE                ${epsilonWall} ${sigma} ${cutoffTop} units box
fix            topWall all wall/lj93 zhi EDGE                2 ${sigma} ${cutoffTop} units box
fix            topWall all wall/lj93 zhi EDGE                2 1 ${cutoffTop} units box
fix            topWall all wall/lj93 zhi EDGE                2 1 0.7147 units box

fix            lowWall all wall/lj93 zlo EDGE                ${epsilonWall} ${sigma} ${cutoffLow} units box
fix            lowWall all wall/lj93 zlo EDGE                2 ${sigma} ${cutoffLow} units box
fix            lowWall all wall/lj93 zlo EDGE                2 1 ${cutoffLow} units box
fix            lowWall all wall/lj93 zlo EDGE                2 1 3 units box


###################### COMPUTES ##########################

compute        bin1 solvent chunk/atom bin/1d z upper 1.0



######################	FIXES ############################


fix 		peclet solvent ave/chunk 1000 1 1000 bin1 density/number norm 		 none ave one file density.profile

fix 		 temp solvent ave/chunk 1000 1 1000 bin1 temp norm none ave one file temp.profile

fix 		2 solvent nve

## Thermostat


region		regthermo block EDGE EDGE EDGE EDGE 0 20

group 		thermo dynamic solvent region regthermo every 1000
dynamic group thermo defined

fix 		3 thermo langevin ${startTemp} ${temp} 10 156453
fix 		3 thermo langevin 1.0 ${temp} 10 156453
fix 		3 thermo langevin 1.0 1.0 10 156453


## Evaporation

region		regevap block EDGE EDGE EDGE EDGE 140 158
fix 		gcmc solvent gcmc 100 100 0 1 780493 ${temp} ${mu} ${gcmcdisplace} region regevap
fix 		gcmc solvent gcmc 100 100 0 1 780493 1.0 ${mu} ${gcmcdisplace} region regevap
fix 		gcmc solvent gcmc 100 100 0 1 780493 1.0 -3.4 ${gcmcdisplace} region regevap
fix 		gcmc solvent gcmc 100 100 0 1 780493 1.0 -3.4 0 region regevap


#### Load balancing

fix 		bal all balance 1000 1.05 shift z 10 1.05

############### Diagnostics and computes ###################
#compute 	com cube	  rigid/local	1 mol x y z
#compute 	quat cube	  rigid/local	1 mol quatw quati quatj quatk

thermo 		1000
thermo_style 	custom step temp epair etotal press pe ke atoms

dump		1 all custom 100000 dump.lammpstrj id mol type x y z
dump 		2 all image 10000 image.*.png type type
dump 		3 all movie 1000 movie.avi type type
#dump 		com cube local 1000 dump.*.xyz c_com[*]
#dump		quat cube      local 1000 dump.*.quat c_quat[*]


restart 	1000000 restart.dat
timestep 	0.005
timer 		full
New timer settings: style=full  mode=nosync  timeout=off


run		5000000
Per MPI rank memory allocation (min/avg/max) = 9.923 | 9.986 | 10.01 Mbytes
Step Temp E_pair TotEng Press PotEng KinEng Atoms 
 3000000     1.016004   -3.1352716   -1.6112691  0.079025997   -3.1352716    1.5240025   439061 
 3001000    1.0151005   -3.1353404   -1.6123914  0.073605576   -3.1353404     1.522949   438974 
 3002000    1.0161726   -3.1371839   -1.6123206  0.074349283   -3.1371839    1.5248632   438886 
 3003000    1.0166486   -3.1404198   -1.6145886  0.076021351   -3.1404198    1.5258312   438813 
 3004000     1.014256   -3.1379183   -1.6152685  0.079109804   -3.1379183    1.5226498   438695 
 3005000    1.0154709   -3.1397111    -1.614869   0.07526668   -3.1397111    1.5248421   438589 
 3006000    1.0149975   -3.1385426   -1.6140637  0.073291385   -3.1385426    1.5244789   438489 
 3007000    1.0134323   -3.1363099   -1.6138139  0.077179755   -3.1363099     1.522496   438383 
 3008000    1.0127383   -3.1370796   -1.6151783  0.072443111   -3.1370796    1.5219013   438254 
 3009000    1.0141538   -3.1407358    -1.616363  0.076441969   -3.1407358    1.5243728   438155 
 3010000    1.0125496   -3.1391931   -1.6168493  0.077259215   -3.1391931    1.5223437   438045 
 3011000     1.013194   -3.1417302   -1.6181776  0.073395723   -3.1417302    1.5235526   437976 
 3012000    1.0109082   -3.1387189   -1.6182772  0.080339478   -3.1387189    1.5204417   437882 
 3013000    1.0116967    -3.140325   -1.6183916  0.075335274    -3.140325    1.5219335   437794 
 3014000    1.0094402   -3.1378332   -1.6190134  0.068682304   -3.1378332    1.5188199   437713 
 3015000    1.0116051   -3.1408006   -1.6184555  0.073530464   -3.1408006    1.5223451   437636 
 3016000    1.0097558   -3.1390728   -1.6191009  0.071850964   -3.1390728    1.5199719   437518 
 3017000    1.0087619    -3.138216   -1.6194555  0.075951562    -3.138216    1.5187605   437436 
 3018000     1.008864   -3.1399308   -1.6208048  0.073324321   -3.1399308     1.519126   437375 
 3019000    1.0097603   -3.1411066   -1.6205023  0.074361237   -3.1411066    1.5206042   437338 
 3020000    1.0087109    -3.139791    -1.620562  0.074426261    -3.139791     1.519229   437279 
 3021000    1.0077504    -3.138864   -1.6207623  0.079926254    -3.138864    1.5181017   437187 
 3022000    1.0082137   -3.1402373   -1.6211875  0.075175826   -3.1402373    1.5190498   437115 
 3023000    1.0084634   -3.1401823   -1.6204851  0.070538052   -3.1401823    1.5196973   437037 
 3024000    1.0086522    -3.141791   -1.6215102  0.067444583    -3.141791    1.5202809   436951 
 3025000     1.007113   -3.1411346   -1.6228853  0.071041666   -3.1411346    1.5182493   436868 
 3026000    1.0062753   -3.1399795   -1.6224998  0.073854939   -3.1399795    1.5174797   436726 
 3027000    1.0071917   -3.1424298   -1.6232829   0.07088799   -3.1424298    1.5191469   436644 
 3028000    1.0053782   -3.1403916   -1.6236603  0.074093546   -3.1403916    1.5167313   436552 
 3029000    1.0046997   -3.1402708   -1.6242125  0.073540883   -3.1402708    1.5160583   436451 
 3030000    1.0043478   -3.1400912   -1.6242998  0.071251236   -3.1400912    1.5157913   436375 
 3031000    1.0044699   -3.1408169   -1.6245564  0.073601945   -3.1408169    1.5162605   436293 
 3032000    1.0047766   -3.1424536   -1.6254868  0.075118887   -3.1424536    1.5169668   436223 
 3033000    1.0044454   -3.1430434   -1.6262602   0.07285199   -3.1430434    1.5167832   436132 
 3034000     1.003631   -3.1434192   -1.6274939  0.067840814   -3.1434192    1.5159253   436025 
 3035000     1.003948   -3.1434348   -1.6267002  0.071817575   -3.1434348    1.5167346   435930 
 3036000    1.0043409   -3.1457299   -1.6280779  0.064127556   -3.1457299     1.517652   435837 
 3037000    1.0054262   -3.1473916   -1.6276325  0.070032513   -3.1473916    1.5197592   435703 
 3038000    1.0046907   -3.1485531   -1.6295256  0.067026192   -3.1485531    1.5190275   435594 
 3039000    1.0036966   -3.1468935   -1.6290275  0.071583474   -3.1468935    1.5178659   435496 
 3040000    1.0024944   -3.1456309   -1.6293079  0.072547739   -3.1456309    1.5163229   435417 
 3041000    1.0034719   -3.1487794   -1.6307408  0.071625699   -3.1487794    1.5180386   435349 
 3042000    1.0019721   -3.1477978    -1.631847   0.06769543   -3.1477978    1.5159507   435297 
 3043000    1.0027618   -3.1479883   -1.6306721  0.069382417   -3.1479883    1.5173163   435248 
 3044000    1.0031482   -3.1495342   -1.6312983  0.070321844   -3.1495342    1.5182359   435152 
 3045000    1.0012515   -3.1496018   -1.6338987  0.073759625   -3.1496018    1.5157031   435055 
 3046000     1.001384    -3.149895   -1.6336358   0.07016247    -3.149895    1.5162593   434953 
 3047000    1.0027061   -3.1522827   -1.6337283    0.0710026   -3.1522827    1.5185544   434869 
 3048000    1.0019234   -3.1527866   -1.6351593  0.069877483   -3.1527866    1.5176273   434795 
 3049000    1.0011889   -3.1507573   -1.6340508  0.069317288   -3.1507573    1.5167066   434740 
 3050000    1.0012061   -3.1535095   -1.6364349  0.067711107   -3.1535095    1.5170746   434642 
 3051000    1.0013515   -3.1529328   -1.6353132  0.072370581   -3.1529328    1.5176196   434549 
 3052000    1.0003285   -3.1523634   -1.6359104    0.0729063   -3.1523634     1.516453   434439 
 3053000    1.0019487   -3.1556279   -1.6363585  0.072767523   -3.1556279    1.5192694   434336 
 3054000     1.000665   -3.1552476   -1.6376766  0.071376573   -3.1552476     1.517571   434265 
 3055000    0.9998079   -3.1541175   -1.6375041  0.067242305   -3.1541175    1.5166134   434167 
 3056000   0.99973563   -3.1534763   -1.6367909  0.073405999   -3.1534763    1.5166854   434115 
 3057000   0.99721184   -3.1517814   -1.6386007   0.07509171   -3.1517814    1.5131808   434022 
 3058000   0.99894137   -3.1542106   -1.6380911  0.071273745   -3.1542106    1.5161196   433932 
 3059000   0.99649163   -3.1530023   -1.6402626  0.068469936   -3.1530023    1.5127397   433835 
 3060000     0.995591   -3.1515963   -1.6399939  0.068281042   -3.1515963    1.5116024   433769 
 3061000   0.99759896   -3.1539307   -1.6390526   0.06902758   -3.1539307    1.5148781   433704 
 3062000   0.99665936   -3.1531738   -1.6393979  0.067965202   -3.1531738    1.5137759   433611 
 3063000   0.99766467   -3.1549836   -1.6393592  0.066043617   -3.1549836    1.5156244   433519 
 3064000   0.99450963   -3.1518028   -1.6407274  0.072125319   -3.1518028    1.5110753   433449 
 3065000   0.99432634   -3.1525937   -1.6414761  0.069837453   -3.1525937    1.5111176   433357 
 3066000   0.99537367   -3.1539366   -1.6410178  0.068385681   -3.1539366    1.5129187   433297 
 3067000   0.99448062   -3.1539767   -1.6422374  0.065529519   -3.1539767    1.5117393   433246 
 3068000   0.99606675   -3.1567954   -1.6422744  0.068906073   -3.1567954    1.5145209   433140 
 3069000   0.99561552   -3.1556576   -1.6415606  0.067427934   -3.1556576     1.514097   433065 
 3070000   0.99437699   -3.1535452    -1.640944  0.071422322   -3.1535452    1.5126012   432954 
 3071000    0.9962035   -3.1559571   -1.6402274  0.068656744   -3.1559571    1.5157297   432854 
 3072000   0.99404543   -3.1550587   -1.6423155  0.072982924   -3.1550587    1.5127432   432769 
 3073000   0.99459885   -3.1553109   -1.6413441  0.068859947   -3.1553109    1.5139668   432660 
 3074000    0.9947664   -3.1563716   -1.6419153  0.073498293   -3.1563716    1.5144563   432593 
 3075000   0.99473061    -3.157839   -1.6431956  0.063608739    -3.157839    1.5146434   432524 
 3076000    0.9943748   -3.1586498     -1.64424  0.066896597   -3.1586498    1.5144098   432436 
 3077000   0.99237889   -3.1566349   -1.6448453  0.072775915   -3.1566349    1.5117896   432316 
 3078000   0.99356471   -3.1579628   -1.6441532  0.069804736   -3.1579628    1.5138096   432255 
 3079000   0.99301855    -3.158422   -1.6451644  0.065976071    -3.158422    1.5132576   432175 
 3080000   0.99235017   -3.1579179   -1.6454899  0.064175815   -3.1579179     1.512428   432121 
 3081000   0.99047616   -3.1569182   -1.6471227  0.065281949   -3.1569182    1.5097955   432057 
 3082000   0.99217477   -3.1596317    -1.647058  0.065884772   -3.1596317    1.5125737   432003 
 3083000   0.99209225   -3.1622536    -1.649466  0.062175453   -3.1622536    1.5127876   431906 
 3084000   0.99087756   -3.1602142   -1.6489534  0.065308682   -3.1602142    1.5112608   431813 
 3085000   0.99019275   -3.1592865   -1.6487834  0.064088241   -3.1592865    1.5105032   431731 
 3086000   0.99096094   -3.1599218    -1.647914  0.063936215   -3.1599218    1.5120077   431636 
 3087000   0.99082684   -3.1604778   -1.6482087  0.064723858   -3.1604778    1.5122691   431503 
 3088000   0.99092598    -3.162056   -1.6494358  0.061810838    -3.162056    1.5126202   431446 
 3089000   0.98895621   -3.1607117   -1.6508498  0.068259446   -3.1607117    1.5098619   431375 
 3090000   0.98965742   -3.1621622   -1.6508058  0.064570767   -3.1621622    1.5113564   431254 
 3091000   0.98964216   -3.1625124   -1.6509305  0.065911483   -3.1625124    1.5115819   431183 
 3092000    0.9903432   -3.1636787   -1.6507348  0.073563683   -3.1636787    1.5129439   431100 
 3093000   0.98916357   -3.1647982   -1.6533303  0.062501806   -3.1647982    1.5114679   431007 
 3094000   0.98982402   -3.1653067   -1.6526331  0.064607051   -3.1653067    1.5126736   430951 
 3095000   0.98912277   -3.1656035   -1.6536543  0.071602064   -3.1656035    1.5119493   430852 
 3096000   0.98981442   -3.1661911   -1.6528298  0.067768241   -3.1661911    1.5133613   430751 
 3097000   0.99106617   -3.1681499   -1.6524596  0.069580686   -3.1681499    1.5156903   430633 
 3098000   0.99127005   -3.1671805   -1.6508862  0.068509125   -3.1671805    1.5162944   430550 
 3099000   0.99005531   -3.1667271   -1.6520903  0.068142153   -3.1667271    1.5146368   430493 
 3100000   0.98968862   -3.1667745   -1.6525087  0.070951061   -3.1667745    1.5142657   430439 
 3101000   0.99002223   -3.1696013   -1.6544626  0.059501945   -3.1696013    1.5151387   430336 
 3102000   0.98873852   -3.1683933   -1.6549202  0.066194021   -3.1683933    1.5134731   430251 
 3103000   0.98851955   -3.1687484   -1.6554628  0.065060104   -3.1687484    1.5132856   430209 
 3104000   0.98665161    -3.167348   -1.6565497  0.070624711    -3.167348    1.5107983   430103 
 3105000   0.98700213   -3.1683339   -1.6565806  0.069616878   -3.1683339    1.5117533   429984 
 3106000   0.98600629   -3.1683823   -1.6578135   0.06795477   -3.1683823    1.5105688   429887 
 3107000   0.98505464   -3.1670904   -1.6577092  0.065080427   -3.1670904    1.5093812   429810 
 3108000   0.98415861   -3.1656445   -1.6572046  0.067091281   -3.1656445    1.5084399   429687 
 3109000   0.98315532   -3.1664386   -1.6593505  0.066347313   -3.1664386     1.507088   429634 
 3110000   0.98334064   -3.1685428   -1.6608408  0.068294291   -3.1685428     1.507702   429540 
 3111000   0.98340837   -3.1686441   -1.6605714  0.064384453   -3.1686441    1.5080727   429464 
 3112000   0.98225027   -3.1675047   -1.6609028  0.062488692   -3.1675047    1.5066019   429377 
 3113000   0.98246376   -3.1679402   -1.6607476  0.065306856   -3.1679402    1.5071926   429302 
 3114000   0.98455583   -3.1707832   -1.6602122  0.061793494   -3.1707832     1.510571   429254 
 3115000   0.98391715   -3.1694707   -1.6596264  0.066748461   -3.1694707    1.5098443   429182 
 3116000   0.98409047   -3.1692713   -1.6587422  0.061938105   -3.1692713    1.5105291   429063 
 3117000   0.98310007   -3.1696854   -1.6602262  0.065603662   -3.1696854    1.5094592   428935 
 3118000   0.98249346   -3.1691728   -1.6603776  0.070913564   -3.1691728    1.5087951   428859 
 3119000   0.98407583   -3.1705416   -1.6590486  0.063633603   -3.1705416     1.511493   428783 
 3120000   0.98423495   -3.1709582   -1.6589669   0.06551668   -3.1709582    1.5119913   428711 
 3121000   0.98413409    -3.172209   -1.6600975  0.063671091    -3.172209    1.5121115   428633 
 3122000   0.98273214   -3.1713131   -1.6607954  0.064343136   -3.1713131    1.5105177   428474 
 3123000   0.98072294   -3.1693877    -1.661631  0.068073487   -3.1693877    1.5077567   428381 
 3124000   0.98079784   -3.1724454   -1.6640595  0.063287784   -3.1724454    1.5083859   428235 
 3125000   0.97944443   -3.1729935   -1.6662844  0.061491888   -3.1729935    1.5067091   428120 
 3126000   0.97995423   -3.1719518   -1.6641661  0.065135886   -3.1719518    1.5077857   428037 
 3127000   0.97868789   -3.1720493   -1.6658637  0.057975542   -3.1720493    1.5061856   427938 
 3128000   0.97982394   -3.1747964   -1.6664641  0.059653277   -3.1747964    1.5083323   427825 
 3129000   0.98015534   -3.1757771   -1.6667196  0.054694648   -3.1757771    1.5090576   427764 
 3130000   0.97900634   -3.1749256   -1.6674009  0.057988423   -3.1749256    1.5075247   427697 
 3131000    0.9800036   -3.1749151   -1.6655972  0.059868306   -3.1749151    1.5093179   427624 
 3132000   0.97754595   -3.1738938   -1.6680476  0.063484342   -3.1738938    1.5058463   427535 
 3133000   0.97634491   -3.1738368   -1.6695557  0.059852607   -3.1738368    1.5042812   427454 
 3134000    0.9775132    -3.176662   -1.6702249  0.055227507    -3.176662    1.5064371   427353 
 3135000   0.97550656   -3.1731757   -1.6695917  0.060512985   -3.1731757    1.5035839   427285 
 3136000   0.97563531   -3.1748427    -1.670821  0.059787955   -3.1748427    1.5040217   427217 
 3137000   0.97717221   -3.1767128   -1.6702196  0.060554101   -3.1767128    1.5064933   427188 
 3138000   0.97748095   -3.1755056      -1.6683  0.063905435   -3.1755056    1.5072056   427121 
 3139000    0.9779421    -3.177336   -1.6691968  0.062273301    -3.177336    1.5081391   427058 
 3140000   0.97853306   -3.1785832   -1.6691015  0.061398233   -3.1785832    1.5094817   426936 
 3141000   0.97887324    -3.178502   -1.6683151   0.06362433    -3.178502    1.5101869   426885 
 3142000   0.97751553   -3.1769844   -1.6686625  0.064613083   -3.1769844    1.5083219   426820 
 3143000   0.97930141   -3.1799453   -1.6685172  0.061498753   -3.1799453    1.5114281   426721 
 3144000    0.9786416   -3.1794134    -1.668908  0.062895764   -3.1794134    1.5105054   426694 
 3145000   0.97810533   -3.1783891   -1.6684567  0.066127503   -3.1783891    1.5099324   426622 
 3146000   0.97635933   -3.1769215   -1.6693734  0.058992532   -3.1769215     1.507548   426534 
 3147000    0.9761566   -3.1780287   -1.6706064  0.059851479   -3.1780287    1.5074223   426481 
 3148000   0.97400746   -3.1770872    -1.672571  0.062714042   -3.1770872    1.5045163   426364 
 3149000   0.97466103    -3.179641   -1.6738009   0.06407103    -3.179641    1.5058401   426275 
 3150000    0.9750317   -3.1815606   -1.6749181  0.059976974   -3.1815606    1.5066426   426210 
 3151000   0.97185824   -3.1783218    -1.676368  0.058326378   -3.1783218    1.5019538   426149 
 3152000    0.9735888   -3.1809149    -1.676103  0.058933481   -3.1809149    1.5048119   426097 
 3153000   0.97422327   -3.1804616    -1.674312   0.06263861   -3.1804616    1.5061496   425996 
 3154000   0.97336053   -3.1796698   -1.6746173  0.059942109   -3.1796698    1.5050525   425929 
 3155000    0.9719933   -3.1777571   -1.6744904  0.064947473   -3.1777571    1.5032667   425836 
 3156000   0.97275217   -3.1800337   -1.6753213  0.058318168   -3.1800337    1.5047124   425759 
 3157000    0.9731088    -3.179962   -1.6745141   0.05876522    -3.179962    1.5054479   425707 
 3158000   0.97172305   -3.1791031   -1.6754564  0.061428156   -3.1791031    1.5036467   425610 
 3159000   0.97259138   -3.1811869   -1.6758994  0.058313024   -3.1811869    1.5052875   425526 
 3160000    0.9716867   -3.1800397   -1.6759156  0.057629545   -3.1800397    1.5041241   425459 
 3161000   0.97263078   -3.1797727   -1.6741554  0.054176101   -3.1797727    1.5056174   425450 
 3162000   0.97335064   -3.1811121   -1.6740723  0.062102989   -3.1811121    1.5070399   425363 
 3163000   0.97093888    -3.178974   -1.6752582  0.062471349    -3.178974    1.5037158   425247 
 3164000   0.97207833   -3.1798595   -1.6741665   0.05915016   -3.1798595     1.505693   425187 
 3165000   0.97218918   -3.1804654   -1.6741792   0.06176725   -3.1804654    1.5062862   425068 
 3166000   0.97147706   -3.1800209   -1.6744768   0.06327477   -3.1800209    1.5055441   424966 
 3167000   0.97130991    -3.180784   -1.6752474  0.052581898    -3.180784    1.5055367   424895 
 3168000   0.97092875   -3.1814554   -1.6763431  0.056443266   -3.1814554    1.5051123   424848 
 3169000   0.96922333   -3.1801374   -1.6773929  0.054354593   -3.1801374    1.5027445   424770 
 3170000   0.96922163    -3.181928   -1.6788252  0.057377867    -3.181928    1.5031028   424668 
 3171000   0.96787624   -3.1796737   -1.6782897  0.056755098   -3.1796737     1.501384   424564 
 3172000   0.96678429   -3.1791479   -1.6792458  0.058275166   -3.1791479    1.4999022   424504 
 3173000   0.96697823   -3.1800793    -1.679696   0.05880026   -3.1800793    1.5003833   424453 
 3174000   0.96756945   -3.1816354   -1.6801083  0.059315932   -3.1816354     1.501527   424389 
 3175000   0.96776657   -3.1821317   -1.6799731  0.061204346   -3.1821317    1.5021586   424297 
 3176000   0.96895903   -3.1842784   -1.6799072  0.055896334   -3.1842784    1.5043712   424195 
 3177000   0.96827531   -3.1831927   -1.6796065  0.054863186   -3.1831927    1.5035861   424117 
 3178000   0.96580487    -3.180827   -1.6807375  0.059305268    -3.180827    1.5000895   424021 
 3179000   0.96651959   -3.1816874    -1.680247    0.0622276   -3.1816874    1.5014403   423953 
 3180000   0.96830245   -3.1856693   -1.6810655  0.057780015   -3.1856693    1.5046039   423842 
 3181000   0.96586928   -3.1836676   -1.6825435  0.056864581   -3.1836676    1.5011241   423757 
 3182000   0.96512433   -3.1830022   -1.6829473  0.059355161   -3.1830022    1.5000548   423732 
 3183000    0.9655718   -3.1841254   -1.6830386  0.055433519   -3.1841254    1.5010869   423637 
 3184000   0.96515538    -3.185213   -1.6846425  0.056876629    -3.185213    1.5005705   423600 
 3185000   0.96460447   -3.1857147    -1.685682  0.061970285   -3.1857147    1.5000327   423510 
 3186000   0.96586415   -3.1872376   -1.6850792   0.06001995   -3.1872376    1.5021583   423463 
 3187000   0.96711105    -3.188087   -1.6838509  0.053522377    -3.188087    1.5042361   423424 
 3188000   0.96717854   -3.1892269     -1.68463  0.060528767   -3.1892269    1.5045969   423352 
 3189000   0.96637461   -3.1888383   -1.6850906  0.062635238   -3.1888383    1.5037477   423239 
 3190000   0.96664682   -3.1903242   -1.6859397  0.056774126   -3.1903242    1.5043845   423179 
 3191000   0.96617084   -3.1912103   -1.6872929  0.055212464   -3.1912103    1.5039174   423102 
 3192000   0.96604113     -3.19183   -1.6878337  0.058405438     -3.19183    1.5039963   423023 
 3193000   0.96575884   -3.1918515    -1.687989  0.059246151   -3.1918515    1.5038626   422937 
 3194000   0.96678293   -3.1943661   -1.6887202  0.053893078   -3.1943661    1.5056459   422884 
 3195000   0.96647456   -3.1960503   -1.6905643  0.064943654   -3.1960503    1.5054861   422794 
 3196000   0.96447402   -3.1942069   -1.6916523  0.061117981   -3.1942069    1.5025546   422742 
 3197000   0.96510367   -3.1962251   -1.6924299  0.056927658   -3.1962251    1.5037952   422669 
 3198000   0.96317343   -3.1955397   -1.6944609  0.057078786   -3.1955397    1.5010788   422587 
 3199000    0.9632262   -3.1960702   -1.6945752  0.059981161   -3.1960702     1.501495   422493 
 3200000   0.96514183   -3.1988643   -1.6941124   0.05005714   -3.1988643    1.5047518   422417 
 3201000   0.96376647   -3.1979779   -1.6950715  0.058073503   -3.1979779    1.5029064   422333 
 3202000   0.96290627   -3.1998814   -1.6980213  0.051110517   -3.1998814    1.5018601   422250 
 3203000   0.96291296   -3.1993686   -1.6973415  0.057079218   -3.1993686    1.5020271   422206 
 3204000   0.96288991   -3.1999958   -1.6977841  0.054117858   -3.1999958    1.5022117   422144 
 3205000   0.96018629   -3.1976076   -1.6993121  0.058346512   -3.1976076    1.4982955   422059 
 3206000   0.96209007   -3.1992095   -1.6977299  0.058733141   -3.1992095    1.5014796   421999 
 3207000   0.96241235   -3.2001871    -1.697934  0.056760545   -3.2001871    1.5022531   421923 
 3208000    0.9618941   -3.2000946   -1.6984511  0.060366873   -3.2000946    1.5016435   421867 
 3209000   0.96167988   -3.2006322   -1.6989067  0.061354914   -3.2006322    1.5017255   421750 
 3210000   0.96244008   -3.2022567   -1.6989698  0.062434577   -3.2022567    1.5032869   421645 
 3211000   0.96189136   -3.2032372   -1.7006292  0.060049878   -3.2032372     1.502608   421595 
 3212000   0.96083911   -3.2036076   -1.7022552  0.051542999   -3.2036076    1.5013524   421486 
 3213000   0.95993179    -3.202772   -1.7025169  0.054193818    -3.202772    1.5002551   421396 
 3214000   0.96123322    -3.204803   -1.7022323  0.058817548    -3.204803    1.5025707   421317 
 3215000   0.96228658   -3.2045699   -1.7001955  0.063521702   -3.2045699    1.5043744   421273 
 3216000    0.9605499   -3.2035368   -1.7017098  0.058249997   -3.2035368    1.5018269   421226 
 3217000   0.96052971   -3.2041352   -1.7020723  0.056662318   -3.2041352    1.5020628   421151 
 3218000   0.95926294   -3.2031929   -1.7028794  0.055171786   -3.2031929    1.5003134   421086 
 3219000   0.95942383   -3.2034786   -1.7025606  0.059408368   -3.2034786    1.5009179   420987 
 3220000   0.95999103   -3.2052047   -1.7030426  0.054196176   -3.2052047    1.5021621   420887 
 3221000   0.95998169   -3.2054094   -1.7030514  0.060109065   -3.2054094    1.5023581   420828 
 3222000   0.95929081   -3.2052483    -1.703661  0.052146592   -3.2052483    1.5015873   420741 
 3223000   0.95979993   -3.2063302   -1.7036531  0.058433723   -3.2063302    1.5026771   420659 
 3224000   0.95591885   -3.2016856   -1.7047218  0.057246898   -3.2016856    1.4969638   420557 
 3225000   0.95617908   -3.2039585   -1.7062275  0.056383318   -3.2039585     1.497731   420456 
 3226000   0.95668027   -3.2042902   -1.7055461  0.059474079   -3.2042902    1.4987442   420392 
 3227000   0.95674277   -3.2056153    -1.706545  0.060981921   -3.2056153    1.4990703   420328 
 3228000   0.95544264   -3.2035992   -1.7063594  0.055907422   -3.2035992    1.4972398   420270 
 3229000   0.95592166   -3.2051974   -1.7068968  0.050481001   -3.2051974    1.4983006   420183 
 3230000    0.9555923   -3.2060051   -1.7080318  0.053073021   -3.2060051    1.4979733   420130 
 3231000    0.9532191   -3.2027814   -1.7082863  0.052667403   -3.2027814     1.494495   420062 
 3232000   0.95640751    -3.206311   -1.7066208  0.054815774    -3.206311    1.4996903   420007 
 3233000    0.9562243   -3.2071251   -1.7075614  0.051448554   -3.2071251    1.4995637   419962 
 3234000   0.95477806    -3.205375   -1.7078083  0.053159413    -3.205375    1.4975667   419886 
 3235000    0.9547393   -3.2062532   -1.7084156  0.057064477   -3.2062532    1.4978376   419793 
 3236000   0.95578528   -3.2097756   -1.7100219  0.050357778   -3.2097756    1.4997537   419716 
 3237000   0.95531169   -3.2087505    -1.709597  0.057644404   -3.2087505    1.4991535   419676 
 3238000   0.95606745   -3.2103382   -1.7098558  0.052308242   -3.2103382    1.5004825   419636 
 3239000   0.95530674   -3.2091005   -1.7096547  0.054144818   -3.2091005    1.4994458   419592 
 3240000   0.95404579   -3.2073693   -1.7096314  0.053877374   -3.2073693    1.4977379   419516 
 3241000   0.95590375   -3.2101587   -1.7092929  0.051444701   -3.2101587    1.5008658   419457 
 3242000   0.95505186   -3.2098142   -1.7100822   0.05713161   -3.2098142     1.499732   419400 
 3243000   0.95441573   -3.2091255   -1.7100743  0.057911698   -3.2091255    1.4990512   419311 
 3244000   0.95471996   -3.2094373   -1.7098009  0.058238812   -3.2094373    1.4996363   419281 
 3245000   0.95328653   -3.2085794   -1.7110911   0.05698092   -3.2085794    1.4974883   419252 
 3246000   0.95449293   -3.2114163   -1.7116823  0.054369499   -3.2114163     1.499734   419154 
 3247000   0.95647903   -3.2140166   -1.7110903  0.054269181   -3.2140166    1.5029263   419134 
 3248000   0.95605029   -3.2143178   -1.7118106  0.058198014   -3.2143178    1.5025072   419063 
 3249000   0.95587856    -3.215143   -1.7125902   0.05527521    -3.215143    1.5025528   418975 
 3250000   0.95490147   -3.2149245   -1.7137392  0.056637263   -3.2149245    1.5011853   418928 
 3251000   0.95566911   -3.2159643    -1.713357  0.056184239   -3.2159643    1.5026073   418868 
 3252000   0.95526478   -3.2149573   -1.7127956  0.054640964   -3.2149573    1.5021616   418815 
 3253000   0.95336251   -3.2136194   -1.7141197  0.056560904   -3.2136194    1.4994997   418723 
 3254000   0.95354237   -3.2155787   -1.7155561  0.057553437   -3.2155787    1.5000226   418656 
 3255000   0.95212487   -3.2141391   -1.7160314   0.06049132   -3.2141391    1.4981076   418568 
 3256000    0.9524187   -3.2169242   -1.7181645   0.05883981   -3.2169242    1.4987597   418515 
 3257000   0.95204758   -3.2174974   -1.7190747  0.056738981   -3.2174974    1.4984228   418446 
 3258000   0.95064538   -3.2152582   -1.7186632  0.052922325   -3.2152582     1.496595   418340 
 3259000   0.95151924   -3.2172615   -1.7189685  0.053170996   -3.2172615     1.498293   418250 
 3260000   0.95237636   -3.2198128   -1.7198689  0.055185305   -3.2198128    1.4999439   418166 
 3261000   0.95004986   -3.2156197   -1.7192254  0.060729456   -3.2156197    1.4963943   418134 
 3262000   0.95090385   -3.2175299    -1.719511  0.058227577   -3.2175299    1.4980189   418056 
 3263000   0.95085091    -3.218737   -1.7206259  0.055113047    -3.218737     1.498111   418007 
 3264000   0.95053469   -3.2183955   -1.7203848  0.053415517   -3.2183955    1.4980106   417896 
 3265000    0.9495298   -3.2175156   -1.7208379   0.05764174   -3.2175156    1.4966776   417826 
 3266000   0.94872735   -3.2169596   -1.7213357  0.054664488   -3.2169596     1.495624   417767 
 3267000   0.94800978   -3.2158282   -1.7211994  0.053123513   -3.2158282    1.4946287   417729 
 3268000   0.94727548   -3.2163813   -1.7226421  0.054010169   -3.2163813    1.4937392   417654 
 3269000   0.94864326   -3.2184413   -1.7223733  0.049257616   -3.2184413     1.496068   417606 
 3270000   0.94903123   -3.2172122   -1.7203209  0.060369672   -3.2172122    1.4968913   417547 
 3271000   0.94976634   -3.2192318   -1.7210662  0.051259681   -3.2192318    1.4981656   417515 
 3272000   0.94960655   -3.2179911   -1.7197833  0.057322718   -3.2179911    1.4982078   417433 
 3273000   0.94988597   -3.2184911   -1.7195911  0.053027909   -3.2184911       1.4989   417363 
 3274000   0.94920604   -3.2186617   -1.7206587  0.052293233   -3.2186617     1.498003   417314 
 3275000   0.94648975   -3.2147756   -1.7208339  0.057701157   -3.2147756    1.4939417   417251 
 3276000   0.94944543   -3.2188177   -1.7200311  0.056538346   -3.2188177    1.4987866   417201 
 3277000   0.94742053   -3.2150659   -1.7193359  0.053817299   -3.2150659    1.4957299   417162 
 3278000   0.94884059   -3.2183385    -1.720126  0.058644893   -3.2183385    1.4982125   417095 
 3279000   0.94644257   -3.2173136   -1.7227371  0.052420199   -3.2173136    1.4945765   417053 
 3280000   0.94694443   -3.2174348   -1.7218184  0.047663262   -3.2174348    1.4956165   416984 
 3281000   0.94616787   -3.2161841   -1.7216579  0.051177147   -3.2161841    1.4945261   416946 
 3282000   0.94743866   -3.2187465   -1.7220408  0.058641392   -3.2187465    1.4967057   416898 
 3283000   0.94627321   -3.2160233   -1.7209901   0.05494894   -3.2160233    1.4950332   416851 
 3284000   0.94640318   -3.2179094   -1.7223014  0.050508301   -3.2179094    1.4956081   416748 
 3285000   0.94379171   -3.2149593   -1.7233242    0.0541589   -3.2149593    1.4916351   416705 
 3286000   0.94458409   -3.2161963   -1.7230437  0.057554449   -3.2161963    1.4931525   416631 
 3287000   0.94383693   -3.2166302   -1.7243865  0.054364553   -3.2166302    1.4922437   416555 
 3288000   0.94551494    -3.219231   -1.7240113  0.048376968    -3.219231    1.4952197   416465 
 3289000   0.94432185   -3.2177273   -1.7241146  0.052840302   -3.2177273    1.4936127   416387 
 3290000   0.94549357   -3.2199894   -1.7244695   0.05190704   -3.2199894    1.4955199   416372 
 3291000   0.94316983   -3.2192719   -1.7271588  0.052044858   -3.2192719    1.4921131   416297 
 3292000   0.94403921   -3.2216224   -1.7276315  0.049666964   -3.2216224    1.4939909   416157 
 3293000   0.94430516   -3.2225321   -1.7279443  0.051436612   -3.2225321    1.4945878   416108 
 3294000   0.94310917   -3.2195011   -1.7265874  0.045931178   -3.2195011    1.4929137   416047 
 3295000   0.94373826   -3.2211215   -1.7270791  0.046767578   -3.2211215    1.4940424   416010 
 3296000   0.94371798   -3.2209746   -1.7267021  0.050367383   -3.2209746    1.4942725   415937 
 3297000   0.94361972   -3.2206952     -1.72651  0.052127308   -3.2206952    1.4941852   415918 
 3298000   0.94269688   -3.2190905   -1.7262266  0.058447882   -3.2190905    1.4928639   415879 
 3299000   0.94368636   -3.2207382   -1.7261492  0.051215657   -3.2207382     1.494589   415835 
 3300000   0.94293568   -3.2214596   -1.7278045  0.051026683   -3.2214596    1.4936551   415764 
 3301000   0.94209706   -3.2213862    -1.728959  0.058516101   -3.2213862    1.4924272   415736 
 3302000   0.94118668   -3.2204567   -1.7292816   0.05485924   -3.2204567    1.4911751   415683 
 3303000   0.94228819   -3.2226278   -1.7294561  0.048884793   -3.2226278    1.4931717   415613 
 3304000   0.94335236   -3.2220763   -1.7271751  0.052455263   -3.2220763    1.4949012   415601 
 3305000   0.94309952   -3.2216826    -1.727103  0.050384136   -3.2216826    1.4945796   415579 
 3306000   0.94287916   -3.2223998   -1.7279464  0.051600162   -3.2223998    1.4944534   415517 
 3307000   0.94285903   -3.2235911   -1.7289538  0.051296215   -3.2235911    1.4946373   415457 
 3308000   0.94357473   -3.2249778   -1.7289827  0.055645394   -3.2249778    1.4959951   415395 
 3309000   0.94401756   -3.2255056   -1.7286895  0.051371187   -3.2255056    1.4968161   415362 
 3310000   0.94335256   -3.2249234   -1.7290357  0.055535476   -3.2249234    1.4958877   415327 
 3311000   0.94367922   -3.2259523   -1.7292655  0.051942578   -3.2259523    1.4966868   415249 
 3312000   0.94303688   -3.2256847   -1.7297464  0.055306709   -3.2256847    1.4959382   415174 
 3313000     0.941157   -3.2238985   -1.7305898   0.04947056   -3.2238985    1.4933087   415076 
 3314000   0.94221625   -3.2243843   -1.7294525  0.052125761   -3.2243843    1.4949317   415092 
 3315000   0.94421153   -3.2301323   -1.7318003  0.054976535   -3.2301323    1.4983321   415027 
 3316000   0.94138516   -3.2278155   -1.7337056  0.056513607   -3.2278155    1.4941098   414954 
 3317000   0.94156987   -3.2269306   -1.7322286  0.052478039   -3.2269306     1.494702   414871 
 3318000   0.94054671   -3.2273863    -1.734125  0.057356557   -3.2273863    1.4932613   414820 
 3319000   0.93981134   -3.2268209   -1.7344249  0.052709398   -3.2268209     1.492396   414736 
 3320000   0.93993362   -3.2288073   -1.7360264   0.04908961   -3.2288073     1.492781   414683 
 3321000   0.93900536   -3.2271999    -1.735663  0.048978694   -3.2271999    1.4915369   414619 
 3322000   0.94063588   -3.2285296   -1.7341649   0.05186895   -3.2285296    1.4943647   414553 
 3323000    0.9412892   -3.2317656   -1.7360094  0.056584525   -3.2317656    1.4957562   414455 
 3324000   0.93993227   -3.2304786   -1.7367272   0.05757919   -3.2304786    1.4937514   414413 
 3325000   0.93939741   -3.2303676   -1.7374266  0.052637287   -3.2303676     1.492941   414402 
 3326000   0.94000616   -3.2301996   -1.7361506  0.054513058   -3.2301996    1.4940491   414363 
 3327000   0.94152317   -3.2314079   -1.7348935  0.051976675   -3.2314079    1.4965144   414348 
 3328000   0.94010631    -3.230188   -1.7358679  0.060688977    -3.230188    1.4943201   414332 
 3329000   0.93973499   -3.2297253   -1.7358584  0.057258089   -3.2297253    1.4938668   414294 
 3330000   0.93838314   -3.2298122   -1.7379755  0.054944936   -3.2298122    1.4918367   414261 
 3331000   0.93832394   -3.2309642   -1.7390956  0.051988057   -3.2309642    1.4918686   414226 
 3332000   0.93723091   -3.2302521   -1.7399523   0.05507828   -3.2302521    1.4902999   414179 
 3333000   0.93716091   -3.2307374   -1.7403977  0.049944627   -3.2307374    1.4903397   414137 
 3334000   0.93856574   -3.2336364   -1.7409869  0.048564775   -3.2336364    1.4926494   414116 
 3335000   0.93757024   -3.2314721   -1.7402223  0.050620744   -3.2314721    1.4912499   414065 
 3336000   0.93839316    -3.231578   -1.7390192  0.055060397    -3.231578    1.4925588   414065 
 3337000   0.93868477   -3.2333828   -1.7400644  0.051966421   -3.2333828    1.4933183   413983 
 3338000   0.93907112   -3.2340628   -1.7399422  0.056850395   -3.2340628    1.4941206   413931 
 3339000   0.94009543   -3.2369056   -1.7409529  0.053200468   -3.2369056    1.4959528   413875 
 3340000   0.93707053   -3.2337733   -1.7423601  0.055472633   -3.2337733    1.4914132   413799 
 3341000   0.93855981   -3.2357107   -1.7417648  0.052216365   -3.2357107    1.4939459   413754 
 3342000   0.93612103   -3.2334795   -1.7432318  0.054979766   -3.2334795    1.4902477   413703 
 3343000   0.93870069   -3.2385727   -1.7438751  0.050195994   -3.2385727    1.4946976   413608 
 3344000   0.93759987   -3.2363989   -1.7432989  0.048480736   -3.2363989       1.4931   413565 
 3345000   0.93681952   -3.2358106   -1.7436538  0.050484823   -3.2358106    1.4921568   413482 
 3346000   0.93598261   -3.2366406   -1.7454598  0.048031092   -3.2366406    1.4911808   413383 
 3347000      0.93516   -3.2362055   -1.7461839  0.046916377   -3.2362055    1.4900216   413341 
 3348000   0.93758674   -3.2407285   -1.7467391   0.05101166   -3.2407285    1.4939894   413313 
 3349000     0.936883   -3.2394916   -1.7467066  0.049841864   -3.2394916     1.492785   413336 
 3350000   0.93519737   -3.2349825   -1.7448004  0.054387844   -3.2349825    1.4901821   413313 
 3351000   0.93575884   -3.2368231   -1.7457066  0.053077763   -3.2368231    1.4911165   413302 
 3352000    0.9365057     -3.23802   -1.7454353  0.051809895     -3.23802    1.4925847   413225 
 3353000   0.93616708   -3.2384218   -1.7462071  0.058772608   -3.2384218    1.4922147   413178 
 3354000    0.9372717    -3.242233   -1.7479864  0.051589021    -3.242233    1.4942466   413103 
 3355000   0.93598573   -3.2413871   -1.7490641  0.051280897   -3.2413871    1.4923229   413068 
 3356000   0.93530255   -3.2412108   -1.7498328  0.050392837   -3.2412108    1.4913781   413028 
 3357000   0.93532568   -3.2419797   -1.7502288  0.054952222   -3.2419797    1.4917509   412935 
 3358000   0.93616093   -3.2433806   -1.7501494  0.052791832   -3.2433806    1.4932313   412894 
 3359000    0.9338895   -3.2402431   -1.7505556  0.050217911   -3.2402431    1.4896876   412872 
 3360000   0.93358017   -3.2411008   -1.7517335  0.050966243   -3.2411008    1.4893673   412824 
 3361000   0.93265271   -3.2413597   -1.7533098  0.053360288   -3.2413597    1.4880499   412779 
 3362000    0.9329127   -3.2430733   -1.7545257  0.046900353   -3.2430733    1.4885476   412756 
 3363000   0.93395272    -3.243147   -1.7528135  0.050845559    -3.243147    1.4903335   412721 
 3364000   0.93328936   -3.2440427    -1.754526  0.050614473   -3.2440427    1.4895167   412654 
 3365000   0.93308373   -3.2441857   -1.7549322  0.051804877   -3.2441857    1.4892535   412636 
 3366000   0.93396778   -3.2449071   -1.7541378  0.056773479   -3.2449071    1.4907693   412607 
 3367000   0.93287887   -3.2435477   -1.7542674  0.052717776   -3.2435477    1.4892803   412538 
 3368000   0.93223638    -3.243036   -1.7546046  0.051174569    -3.243036    1.4884313   412489 
 3369000   0.93403407   -3.2458431   -1.7545199  0.054962699   -3.2458431    1.4913233   412483 
 3370000   0.93468779   -3.2478126   -1.7553406  0.052237202   -3.2478126     1.492472   412454 
 3371000   0.93484091   -3.2478386   -1.7550859  0.052661176   -3.2478386    1.4927527   412444 
 3372000   0.93537838    -3.248124   -1.7542741  0.051211085    -3.248124    1.4938499   412378 
 3373000   0.93395141   -3.2472194   -1.7556122  0.053569095   -3.2472194    1.4916072   412368 
 3374000   0.93336035   -3.2457275   -1.7550427  0.051816482   -3.2457275    1.4906849   412362 
 3375000   0.93332418   -3.2459101   -1.7551637  0.058975071   -3.2459101    1.4907464   412329 
 3376000   0.93449434    -3.248473   -1.7554846  0.058310289    -3.248473    1.4929884   412226 
 3377000   0.93515076    -3.247442   -1.7533179  0.053710454    -3.247442    1.4941241   412202 
 3378000   0.93346709   -3.2471873   -1.7554818  0.053170462   -3.2471873    1.4917054   412127 
 3379000    0.9341032   -3.2493591   -1.7564126  0.056276398   -3.2493591    1.4929466   412065 
 3380000   0.93243741   -3.2462963   -1.7560917  0.051165473   -3.2462963    1.4902046   412087 
 3381000   0.93119781    -3.246126   -1.7576568  0.051058598    -3.246126    1.4884691   412019 
 3382000   0.93149445   -3.2455851   -1.7564792  0.052044064   -3.2455851    1.4891059   411974 
 3383000   0.93104288   -3.2464684   -1.7579578   0.05193871   -3.2464684    1.4885105   411939 
 3384000    0.9308793   -3.2455197   -1.7572346  0.049725885   -3.2455197    1.4882851   411929 
 3385000   0.93013556   -3.2446076   -1.7574069  0.051405923   -3.2446076    1.4872007   411900 
 3386000   0.93014941   -3.2450043   -1.7575756  0.046278681   -3.2450043    1.4874287   411843 
 3387000   0.93082196    -3.244106   -1.7555874  0.054243492    -3.244106    1.4885187   411839 
 3388000    0.9311844   -3.2480331   -1.7586238  0.051013957   -3.2480331    1.4894093   411753 
 3389000   0.93035605    -3.246592   -1.7583739  0.055494569    -3.246592    1.4882181   411716 
 3390000   0.93128527   -3.2479394   -1.7580757  0.048155727   -3.2479394    1.4898637   411672 
 3391000   0.93005729   -3.2450894   -1.7569589  0.054310673   -3.2450894    1.4881305   411608 
 3392000   0.92988124    -3.245399   -1.7573115   0.04838528    -3.245399    1.4880874   411542 
 3393000   0.92990065    -3.245146   -1.7569624  0.054741532    -3.245146    1.4881836   411524 
 3394000    0.9312524   -3.2471568   -1.7567121  0.045256805   -3.2471568    1.4904447   411497 
 3395000   0.92987243   -3.2436903   -1.7554578   0.04947545   -3.2436903    1.4882325   411498 
 3396000   0.93005712   -3.2443839    -1.755541  0.043649135   -3.2443839    1.4888428   411411 
 3397000   0.93178578   -3.2469811   -1.7553746  0.048248237   -3.2469811    1.4916065   411412 
 3398000   0.92852831    -3.243814    -1.757068  0.049081137    -3.243814     1.486746   411314 
 3399000   0.92753913     -3.24216   -1.7567956  0.051146867     -3.24216    1.4853644   411258 
 3400000   0.92763885   -3.2419907   -1.7563763  0.049012322   -3.2419907    1.4856144   411233 
 3401000    0.9291956   -3.2447241    -1.756403  0.047983264   -3.2447241    1.4883211   411174 
 3402000   0.92886677    -3.245396   -1.7573302  0.051598746    -3.245396    1.4880658   411099 
 3403000   0.92783596   -3.2448948   -1.7582634  0.049967654   -3.2448948    1.4866314   411039 
 3404000   0.92837547   -3.2446035    -1.757086  0.051409178   -3.2446035    1.4875175   411033 
 3405000   0.92812063   -3.2453387   -1.7579762   0.04749366   -3.2453387    1.4873625   410963 
 3406000   0.92900608   -3.2476804   -1.7587974   0.04914097   -3.2476804     1.488883   410935 
 3407000   0.92827457   -3.2459396   -1.7581639   0.04924013   -3.2459396    1.4877758   410917 
 3408000   0.92860631   -3.2480469   -1.7595112  0.050481592   -3.2480469    1.4885357   410854 
 3409000   0.92892798   -3.2492708   -1.7599912   0.04863641   -3.2492708    1.4892797   410791 
 3410000   0.92653937    -3.246546   -1.7608318  0.051816332    -3.246546    1.4857142   410718 
 3411000   0.92629247   -3.2474122   -1.7619891  0.045892282   -3.2474122    1.4854232   410689 
 3412000   0.92707677   -3.2492742   -1.7624159  0.048133608   -3.2492742    1.4868583   410640 
 3413000   0.92787069   -3.2509846   -1.7627044  0.048350679   -3.2509846    1.4882802   410599 
 3414000    0.9269709   -3.2501769   -1.7632096  0.045381399   -3.2501769    1.4869673   410563 
 3415000   0.92658359    -3.249488   -1.7629718  0.047809937    -3.249488    1.4865162   410516 
 3416000   0.92769774   -3.2525243   -1.7641881  0.045291208   -3.2525243    1.4883363   410507 
 3417000   0.92650055   -3.2518191    -1.765313  0.048240923   -3.2518191    1.4865061   410482 
 3418000   0.92600259   -3.2521843   -1.7662962  0.050984809   -3.2521843    1.4858882   410432 
 3419000   0.92413108    -3.250592   -1.7675118  0.049494532    -3.250592    1.4830802   410378 
 3420000    0.9249307   -3.2520338   -1.7674135  0.049118835   -3.2520338    1.4846203   410307 
 3421000   0.92480031   -3.2523046   -1.7677633  0.053227569   -3.2523046    1.4845413   410271 
 3422000   0.92625811   -3.2545768   -1.7676193  0.046798106   -3.2545768    1.4869575   410250 
 3423000   0.92674439   -3.2545077   -1.7666717   0.05157973   -3.2545077    1.4878361   410223 
 3424000    0.9279449   -3.2578735   -1.7681391  0.049178114   -3.2578735    1.4897344   410231 
 3425000   0.92795847   -3.2581888   -1.7681275  0.052475672   -3.2581888    1.4900613   410147 
 3426000   0.92646095   -3.2572355   -1.7695244   0.05382202   -3.2572355    1.4877111   410132 
 3427000    0.9268394   -3.2569668   -1.7683685  0.049638835   -3.2569668    1.4885983   410055 
 3428000    0.9269164   -3.2567986   -1.7679459   0.04881888   -3.2567986    1.4888526   410019 
 3429000   0.92756167   -3.2578722   -1.7678232  0.055316534   -3.2578722     1.490049   409975 
 3430000   0.92550714   -3.2562018   -1.7693118  0.055679184   -3.2562018      1.48689   409936 
 3431000   0.92675497   -3.2582774   -1.7692919  0.051986641   -3.2582774    1.4889855   409911 
 3432000   0.92605455   -3.2592425   -1.7711536  0.045970234   -3.2592425    1.4880889   409848 
 3433000    0.9244042   -3.2574585   -1.7717932  0.049471444   -3.2574585    1.4856653   409785 
 3434000   0.92589644   -3.2592199   -1.7708766  0.049222407   -3.2592199    1.4883433   409708 
 3435000   0.92402211   -3.2574508   -1.7719682  0.052792546   -3.2574508    1.4854826   409666 
 3436000   0.92458181    -3.258319   -1.7717044  0.049567427    -3.258319    1.4866147   409602 
 3437000   0.92473322   -3.2578368   -1.7708189  0.050911699   -3.2578368    1.4870178   409558 
 3438000   0.92390093   -3.2561021   -1.7701687  0.054278952   -3.2561021    1.4859334   409488 
 3439000    0.9238916    -3.256402   -1.7703639  0.050803158    -3.256402    1.4860382   409455 
 3440000   0.92383012   -3.2574574   -1.7713112  0.047989682   -3.2574574    1.4861462   409398 
 3441000   0.92393132   -3.2572326   -1.7706984  0.047106643   -3.2572326    1.4865341   409336 
 3442000   0.92269615   -3.2557365   -1.7710591  0.052867786   -3.2557365    1.4846774   409300 
 3443000   0.92297954   -3.2560824     -1.77088  0.055109537   -3.2560824    1.4852023   409281 
 3444000   0.92274221   -3.2555665   -1.7704957  0.048968626   -3.2555665    1.4850708   409212 
 3445000   0.92155793   -3.2548712   -1.7714635  0.046933385   -3.2548712    1.4834077   409145 
 3446000   0.92129261   -3.2554457   -1.7721424   0.05004225   -3.2554457    1.4833033   409056 
 3447000    0.9217113   -3.2553272   -1.7711213  0.048161596   -3.2553272    1.4842059   408993 
 3448000    0.9214741   -3.2546306    -1.770676  0.047164623   -3.2546306    1.4839546   408957 
 3449000   0.92054452   -3.2537688   -1.7711988  0.044532269   -3.2537688      1.48257   408926 
 3450000   0.92030123   -3.2536522   -1.7713617   0.04345667   -3.2536522    1.4822905   408895 
 3451000   0.92037031   -3.2536012   -1.7710036  0.047192213   -3.2536012    1.4825976   408841 
 3452000   0.92030728   -3.2527005   -1.7700014  0.048014092   -3.2527005    1.4826992   408785 
 3453000   0.91950815   -3.2524571   -1.7709077  0.045768731   -3.2524571    1.4815494   408747 
 3454000   0.92057451   -3.2535034   -1.7701996   0.05124796   -3.2535034    1.4833038   408737 
 3455000   0.91902247   -3.2520088   -1.7708832  0.044408087   -3.2520088    1.4811256   408648 
 3456000   0.92057337   -3.2545956   -1.7709923  0.044085495   -3.2545956    1.4836033   408654 
 3457000   0.91916885   -3.2516885   -1.7701784   0.04804863   -3.2516885    1.4815101   408607 
 3458000     0.920933   -3.2538042   -1.7693271  0.045961704   -3.2538042    1.4844771   408573 
 3459000   0.91959707   -3.2551162   -1.7726038  0.042094103   -3.2551162    1.4825124   408521 
 3460000   0.91844328   -3.2534083   -1.7728249   0.05083154   -3.2534083    1.4805834   408540 
 3461000   0.92022296   -3.2562301   -1.7725053  0.049814269   -3.2562301    1.4837248   408465 
 3462000   0.91989226    -3.256642   -1.7733342  0.042094539    -3.256642    1.4833078   408433 
 3463000   0.91956421   -3.2568565   -1.7739179  0.045778443   -3.2568565    1.4829386   408389 
 3464000   0.91775409   -3.2558124   -1.7756516  0.049977194   -3.2558124    1.4801608   408350 
 3465000   0.91950023   -3.2575165   -1.7743906  0.045746402   -3.2575165    1.4831259   408309 
 3466000   0.91882925   -3.2579371   -1.7754868  0.045955677   -3.2579371    1.4824503   408197 
 3467000   0.91751556   -3.2576176    -1.777149  0.040894552   -3.2576176    1.4804686   408159 
 3468000    0.9184945   -3.2587752   -1.7765963   0.04619988   -3.2587752    1.4821789   408123 
 3469000   0.91810829   -3.2574466   -1.7756912  0.045621015   -3.2574466    1.4817553   408068 
 3470000   0.91873931   -3.2597202   -1.7768665  0.045122802   -3.2597202    1.4828537   408046 
 3471000   0.92009967   -3.2630232    -1.777872  0.046169218   -3.2630232    1.4851513   408018 
 3472000   0.91945973   -3.2616582    -1.777438   0.04551581   -3.2616582    1.4842202   407990 
 3473000   0.91822365   -3.2606695   -1.7783356  0.048896417   -3.2606695    1.4823338   407960 
 3474000   0.92014917   -3.2660312   -1.7803996   0.04519672   -3.2660312    1.4856317   407908 
 3475000   0.92015749   -3.2644578    -1.778678  0.053872871   -3.2644578    1.4857799   407871 
 3476000   0.92090768   -3.2660546   -1.7789467  0.050172473   -3.2660546    1.4871079   407839 
 3477000   0.92065684   -3.2660266   -1.7790904  0.051047696   -3.2660266    1.4869362   407775 
 3478000   0.92083055   -3.2677894   -1.7804414  0.053951935   -3.2677894     1.487348   407739 
 3479000   0.91937804   -3.2659948   -1.7807197   0.05106853   -3.2659948    1.4852751   407664 
 3480000   0.91974444   -3.2675924    -1.781554  0.051969826   -3.2675924    1.4860383   407617 
 3481000   0.91925018   -3.2663842   -1.7811298  0.049504243   -3.2663842    1.4852543   407613 
 3482000   0.91834013   -3.2650762   -1.7812121   0.05209359   -3.2650762     1.483864   407591 
 3483000   0.91901522   -3.2672331   -1.7821507  0.054213355   -3.2672331    1.4850824   407556 
 3484000   0.91869824   -3.2657232    -1.781113  0.052227563   -3.2657232    1.4846102   407545 
 3485000   0.91930171   -3.2667936    -1.781066  0.054937099   -3.2667936    1.4857276   407506 
 3486000   0.92034199   -3.2691265   -1.7813635  0.048466579   -3.2691265     1.487763   407409 
 3487000   0.91867688   -3.2667533   -1.7814487  0.053067544   -3.2667533    1.4853046   407345 
 3488000     0.918226   -3.2665235   -1.7817584  0.048757849   -3.2665235    1.4847652   407293 
 3489000   0.91804746   -3.2660664   -1.7814952  0.046700615   -3.2660664    1.4845712   407267 
 3490000   0.91697948   -3.2659725   -1.7829426  0.047839227   -3.2659725    1.4830299   407216 
 3491000   0.91579338   -3.2634166   -1.7821268  0.048758013   -3.2634166    1.4812899   407167 
 3492000   0.91660927   -3.2646677   -1.7819088  0.050756794   -3.2646677    1.4827589   407126 
 3493000   0.91670469   -3.2646974   -1.7814271  0.050122949   -3.2646974    1.4832703   407028 
 3494000    0.9158156   -3.2636988   -1.7815284  0.049969536   -3.2636988    1.4821704   406935 
 3495000   0.91464682    -3.264003   -1.7836806  0.048838976    -3.264003    1.4803224   406923 
 3496000   0.91429109    -3.264666   -1.7846102  0.048153794    -3.264666    1.4800559   406838 
 3497000   0.91299334   -3.2619474   -1.7838761  0.048726817   -3.2619474    1.4780713   406806 
 3498000   0.91488353    -3.264051   -1.7828468  0.052963652    -3.264051    1.4812042   406786 
 3499000   0.91412233   -3.2639568   -1.7837193  0.045175668   -3.2639568    1.4802375   406713 
 3500000   0.91605167   -3.2664393   -1.7828624  0.052572028   -3.2664393    1.4835769   406654 
 3501000   0.91521862   -3.2653931   -1.7829759  0.047956038   -3.2653931    1.4824173   406602 
 3502000   0.91334963   -3.2630517   -1.7836144  0.047824589   -3.2630517    1.4794373   406589 
 3503000   0.91345746   -3.2642759     -1.78438  0.043246644   -3.2642759    1.4798959   406511 
 3504000   0.91406059   -3.2649667   -1.7840355  0.043241863   -3.2649667    1.4809313   406495 
 3505000   0.91437079   -3.2647399   -1.7832878  0.045914617   -3.2647399    1.4814521   406490 
 3506000   0.91299993   -3.2626623   -1.7833075  0.046433413   -3.2626623    1.4793548   406456 
 3507000   0.91397506   -3.2637398   -1.7827103  0.045256168   -3.2637398    1.4810295   406430 
 3508000     0.914174   -3.2640751   -1.7826394  0.045867711   -3.2640751    1.4814357   406407 
 3509000   0.91322459   -3.2635389   -1.7834887    0.0512842   -3.2635389    1.4800502   406365 
 3510000   0.91341787   -3.2639262   -1.7834389  0.049722133   -3.2639262    1.4804873   406331 
 3511000   0.91407146   -3.2646173   -1.7828737  0.042375175   -3.2646173    1.4817435   406277 
 3512000   0.91295691   -3.2621165   -1.7821141  0.049116374   -3.2621165    1.4800024   406259 
 3513000   0.91388669   -3.2639304   -1.7821581  0.048086874   -3.2639304    1.4817723   406187 
 3514000   0.91390019   -3.2645653   -1.7826106  0.043572737   -3.2645653    1.4819547   406143 
 3515000   0.91407561   -3.2669888   -1.7845744  0.045109952   -3.2669888    1.4824144   406095 
 3516000   0.91267249   -3.2649433   -1.7846842  0.041523794   -3.2649433    1.4802591   406062 
 3517000   0.91350374   -3.2640421   -1.7824129  0.045443277   -3.2640421    1.4816292   406056 
 3518000   0.91333055   -3.2649544   -1.7835076  0.049808683   -3.2649544    1.4814468   406029 
 3519000   0.91407584    -3.266376   -1.7835084   0.04628352    -3.266376    1.4828675   405971 
 3520000   0.91420376   -3.2669538   -1.7837362  0.051012346   -3.2669538    1.4832175   405932 
 3521000   0.91461191   -3.2691958   -1.7853343  0.047685867   -3.2691958    1.4838614   405937 
 3522000    0.9135599   -3.2680279   -1.7856615  0.047931546   -3.2680279    1.4823665   405879 
 3523000   0.91257836    -3.267416   -1.7865035  0.050203711    -3.267416    1.4809124   405841 
 3524000   0.91296001   -3.2681206   -1.7864866   0.04840814   -3.2681206     1.481634   405813 
 3525000    0.9118068   -3.2672819   -1.7872094  0.050862126   -3.2672819    1.4800725   405728 
 3526000   0.91147514   -3.2681127   -1.7884582  0.048855392   -3.2681127    1.4796545   405695 
 3527000   0.91142503   -3.2669484   -1.7871564   0.05008426   -3.2669484     1.479792   405635 
 3528000    0.9123447   -3.2689008   -1.7875901  0.051330205   -3.2689008    1.4813107   405628 
 3529000   0.91160906   -3.2697614   -1.7895137   0.04641138   -3.2697614    1.4802477   405592 
 3530000   0.91225059   -3.2709753   -1.7895325  0.050937037   -3.2709753    1.4814428   405550 
 3531000   0.91108978   -3.2699672   -1.7900921   0.05044839   -3.2699672    1.4798751   405463 
 3532000    0.9106304    -3.271435   -1.7920652  0.043099721    -3.271435    1.4793698   405397 
 3533000    0.9110158    -3.270896   -1.7907541   0.04683437    -3.270896    1.4801419   405357 
 3534000   0.91132742   -3.2718628   -1.7909771  0.047772454   -3.2718628    1.4808857   405292 
 3535000   0.91090378   -3.2717149   -1.7914519  0.045691994   -3.2717149     1.480263   405274 
 3536000   0.91246495   -3.2723813   -1.7893252  0.047385905   -3.2723813    1.4830562   405204 
 3537000    0.9119697   -3.2737422   -1.7913848  0.043758086   -3.2737422    1.4823573   405175 
 3538000   0.91232908   -3.2729034   -1.7899144   0.04784258   -3.2729034    1.4829891   405162 
 3539000   0.91186557   -3.2724603    -1.790049  0.046011538   -3.2724603    1.4824112   405114 
 3540000   0.91208887   -3.2716974   -1.7888645  0.043775025   -3.2716974    1.4828328   405098 
 3541000   0.91194906   -3.2727943   -1.7900936  0.050239274   -3.2727943    1.4827007   405072 
 3542000   0.91032324   -3.2704018   -1.7902202  0.047229735   -3.2704018    1.4801816   405038 
 3543000   0.91005413   -3.2692626   -1.7893871  0.046811333   -3.2692626    1.4798755   405002 
 3544000   0.90906172    -3.269202   -1.7908563  0.046701601    -3.269202    1.4783457   404979 
 3545000   0.90916361   -3.2688505   -1.7900908  0.047546313   -3.2688505    1.4787597   404911 
 3546000   0.90916921   -3.2689361   -1.7900614  0.043544985   -3.2689361    1.4788747   404882 
 3547000   0.90948615   -3.2703633   -1.7908232  0.044732059   -3.2703633    1.4795401   404841 
 3548000   0.90749183   -3.2679217   -1.7914582  0.054174934   -3.2679217    1.4764635   404795 
 3549000   0.90730781   -3.2677161   -1.7913878  0.047733832   -3.2677161    1.4763282   404750 
 3550000   0.90874963   -3.2698897   -1.7911168  0.040743618   -3.2698897    1.4787729   404723 
 3551000   0.90838259   -3.2688394   -1.7906126  0.048361141   -3.2688394    1.4782268   404709 
 3552000   0.90874846   -3.2704653   -1.7916833  0.045655614   -3.2704653     1.478782   404720 
 3553000    0.9084602   -3.2699677    -1.791578  0.048088497   -3.2699677    1.4783896   404699 
 3554000   0.90987584    -3.270267   -1.7896834  0.047477198    -3.270267    1.4805836   404729 
 3555000     0.910044   -3.2708995   -1.7897861  0.044795457   -3.2708995    1.4811134   404659 
 3556000   0.90825124   -3.2692046   -1.7908591  0.049962743   -3.2692046    1.4783455   404618 
 3557000   0.90878683   -3.2699559   -1.7905521  0.052434362   -3.2699559    1.4794037   404567 
 3558000   0.91069307   -3.2723214   -1.7898475  0.049807298   -3.2723214    1.4824739   404576 
 3559000   0.90870326   -3.2704177    -1.791066  0.051346134   -3.2704177    1.4793518   404544 
 3560000   0.90929691   -3.2723858    -1.791998  0.049375672   -3.2723858    1.4803877   404525 
 3561000   0.90768579   -3.2693655   -1.7915606  0.052444222   -3.2693655    1.4778049   404514 
 3562000   0.91117312   -3.2745057    -1.790803  0.050137181   -3.2745057    1.4837027   404454 
 3563000   0.91040095   -3.2738346   -1.7913013  0.052429784   -3.2738346    1.4825334   404430 
 3564000   0.91041265   -3.2735058   -1.7908031  0.047869909   -3.2735058    1.4827027   404389 
 3565000   0.90885754   -3.2735117   -1.7932465  0.046101426   -3.2735117    1.4802652   404363 
 3566000    0.9078527   -3.2716591   -1.7929902  0.051770876   -3.2716591    1.4786688   404352 
 3567000   0.90939521   -3.2732818   -1.7921555  0.046576136   -3.2732818    1.4811263   404367 
 3568000   0.90902716    -3.275437    -1.794782  0.040638924    -3.275437     1.480655   404332 
 3569000   0.90795532   -3.2733394   -1.7943022   0.05049987   -3.2733394    1.4790372   404297 
 3570000   0.91029964   -3.2767161   -1.7937611  0.045150063   -3.2767161    1.4829551   404270 
 3571000   0.90710206    -3.273431   -1.7955534  0.045334652    -3.273431    1.4778775   404234 
 3572000   0.90767631   -3.2750932   -1.7962947  0.046273993   -3.2750932    1.4787985   404238 
 3573000   0.90773169   -3.2754201   -1.7963229  0.047394259   -3.2754201    1.4790973   404181 
 3574000   0.90682801   -3.2738982   -1.7962844  0.051203033   -3.2738982    1.4776138   404184 
 3575000    0.9074875   -3.2760168   -1.7971381  0.041126233   -3.2760168    1.4788787   404132 
 3576000   0.90773283   -3.2755621   -1.7961958  0.047763221   -3.2755621    1.4793663   404108 
 3577000   0.90836312   -3.2771625    -1.796714  0.048561457   -3.2771625    1.4804485   404093 
 3578000   0.90785574   -3.2772107   -1.7974427   0.04820577   -3.2772107     1.479768   404053 
 3579000   0.90740215   -3.2775055   -1.7982718  0.043005911   -3.2775055    1.4792337   403997 
 3580000   0.90795626   -3.2778668   -1.7976492  0.051475994   -3.2778668    1.4802176   403975 
 3581000   0.90675121   -3.2767451    -1.798353  0.044121046   -3.2767451    1.4783921   403937 
 3582000   0.90769233   -3.2775731   -1.7975402   0.04690491   -3.2775731    1.4800328   403908 
 3583000   0.90728367   -3.2771931   -1.7976618  0.047864533   -3.2771931    1.4795313   403863 
 3584000   0.90695581   -3.2775011   -1.7982151  0.050857853   -3.2775011     1.479286   403784 
 3585000   0.90850151   -3.2787492   -1.7967292  0.049846957   -3.2787492      1.48202   403726 
 3586000   0.90879665   -3.2798552   -1.7971518  0.053029209   -3.2798552    1.4827035   403671 
 3587000   0.90841868   -3.2787438   -1.7965983  0.053165594   -3.2787438    1.4821455   403655 
 3588000   0.90951875   -3.2811152   -1.7970902  0.048043302   -3.2811152    1.4840249   403632 
 3589000   0.90834558   -3.2788398   -1.7966373  0.048865025   -3.2788398    1.4822025   403607 
 3590000   0.90878677   -3.2791864   -1.7961427  0.055567535   -3.2791864    1.4830437   403574 
 3591000   0.90846246   -3.2811868   -1.7985291  0.046444673   -3.2811868    1.4826577   403535 
 3592000   0.90534244   -3.2775265   -1.7999828  0.052867799   -3.2775265    1.4775437   403541 
 3593000   0.90617318   -3.2787453   -1.7997321  0.047780488   -3.2787453    1.4790131   403510 
 3594000   0.90771731   -3.2807842   -1.7989349  0.046113145   -3.2807842    1.4818492   403424 
 3595000   0.90604669   -3.2798525   -1.8007709  0.051402501   -3.2798525    1.4790816   403435 
 3596000   0.90535116   -3.2808431   -1.8028383   0.05042032   -3.2808431    1.4780048   403419 
 3597000   0.90600997   -3.2809224   -1.8017138  0.047337458   -3.2809224    1.4792087   403384 
 3598000   0.90620421   -3.2788717   -1.7994449  0.054245684   -3.2788717    1.4794268   403411 
 3599000   0.90485456   -3.2772179   -1.7999762  0.050271081   -3.2772179    1.4772417   403406 
 3600000   0.90635073   -3.2798203   -1.7998828  0.047257912   -3.2798203    1.4799374   403337 
 3601000   0.90535293   -3.2784698   -1.8001506  0.048471247   -3.2784698    1.4783192   403334 
 3602000    0.9064594   -3.2795157   -1.7994339  0.043497695   -3.2795157    1.4800819   403346 
 3603000   0.90709971   -3.2822038   -1.8009038  0.047666258   -3.2822038       1.4813   403299 
 3604000   0.90566227   -3.2817573   -1.8027387   0.04510451   -3.2817573    1.4790186   403281 
 3605000   0.90622359   -3.2830975   -1.8028576  0.047600721   -3.2830975      1.48024   403198 
 3606000   0.90675628   -3.2828831   -1.8018686  0.049235388   -3.2828831    1.4810146   403224 
 3607000   0.90579525   -3.2813266   -1.8016688  0.041387882   -3.2813266    1.4796577   403166 
 3608000   0.90483481   -3.2795199   -1.8014055  0.048138946   -3.2795199    1.4781145   403159 
 3609000   0.90508286   -3.2798521   -1.8012187  0.046051117   -3.2798521    1.4786334   403128 
 3610000   0.90419453   -3.2809542   -1.8036695  0.047653208   -3.2809542    1.4772847   403100 
 3611000   0.90483748   -3.2810379   -1.8027724  0.049451092   -3.2810379    1.4782655   403119 
 3612000   0.90472999   -3.2816053   -1.8034164  0.050151814   -3.2816053    1.4781889   403092 
 3613000   0.90441187   -3.2810638   -1.8031563  0.053582554   -3.2810638    1.4779075   403027 
 3614000   0.90665419   -3.2848793   -1.8031827  0.044516708   -3.2848793    1.4816967   402993 
 3615000   0.90657549    -3.283727   -1.8021957  0.052457756    -3.283727    1.4815313   403003 
 3616000   0.90556355   -3.2823554   -1.8024484   0.05205239   -3.2823554    1.4799069   402995 
 3617000   0.90512319   -3.2828797   -1.8035933  0.049526478   -3.2828797    1.4792864   402968 
 3618000   0.90423386   -3.2830985   -1.8050822  0.050579127   -3.2830985    1.4780163   402918 
 3619000   0.90412304   -3.2831467    -1.805051  0.053927337   -3.2831467    1.4780956   402847 
 3620000   0.90401084    -3.284504   -1.8063459  0.047974229    -3.284504    1.4781581   402780 
 3621000   0.90471527   -3.2842751   -1.8047081  0.049875583   -3.2842751     1.479567   402710 
 3622000   0.90422857   -3.2858999   -1.8069856  0.049053638   -3.2858999    1.4789143   402671 
 3623000    0.9034472   -3.2851827   -1.8073702   0.05115525   -3.2851827    1.4778125   402623 
 3624000   0.90395353   -3.2866249   -1.8079842  0.047859603   -3.2866249    1.4786407   402623 
 3625000   0.90323764    -3.283838    -1.806394   0.05417594    -3.283838     1.477444   402630 
 3626000    0.9016496   -3.2828269   -1.8079475  0.052627718   -3.2828269    1.4748794   402621 
 3627000   0.90211923   -3.2855295   -1.8096877  0.046588755   -3.2855295    1.4758419   402568 
 3628000   0.90170883   -3.2845757   -1.8092734  0.047698976   -3.2845757    1.4753024   402532 
 3629000   0.90332214   -3.2871968   -1.8092402  0.047178709   -3.2871968    1.4779566   402528 
 3630000   0.90305625   -3.2869602   -1.8094018  0.039685886   -3.2869602    1.4775583   402518 
 3631000   0.90260118   -3.2852811   -1.8084087  0.046405317   -3.2852811    1.4768724   402502 
 3632000   0.90245414   -3.2833217   -1.8065908  0.044610584   -3.2833217    1.4767309   402475 
 3633000   0.90461835    -3.287127   -1.8067848  0.041299142    -3.287127    1.4803422   402456 
 3634000   0.90239653   -3.2837205   -1.8069151  0.048350983   -3.2837205    1.4768054   402429 
 3635000    0.9028387   -3.2842388    -1.806662  0.049141531   -3.2842388    1.4775768   402416 
 3636000   0.90384259   -3.2861781   -1.8067966  0.049096356   -3.2861781    1.4793815   402372 
 3637000   0.90486787   -3.2865274   -1.8052358  0.044339673   -3.2865274    1.4812916   402309 
 3638000   0.90370801   -3.2856897   -1.8060872  0.047804054   -3.2856897    1.4796025   402252 
 3639000   0.90334057   -3.2844735   -1.8053476  0.054834602   -3.2844735    1.4791259   402218 
 3640000    0.9041967   -3.2847503   -1.8041122  0.047520234   -3.2847503    1.4806382   402188 
 3641000   0.90108395   -3.2817748   -1.8060944  0.049411942   -3.2817748    1.4756804   402150 
 3642000   0.90212371   -3.2849096    -1.807328  0.045809525   -3.2849096    1.4775816   402096 
 3643000   0.90168984   -3.2853913   -1.8082962  0.044672613   -3.2853913    1.4770951   402035 
 3644000   0.89993958   -3.2839593   -1.8096581  0.048820782   -3.2839593    1.4743012   402015 
 3645000   0.89928116   -3.2832095      -1.8098   0.04522054   -3.2832095    1.4734095   401964 
 3646000   0.89936377   -3.2829762   -1.8092334  0.042880706   -3.2829762    1.4737428   401910 
 3647000   0.89919597    -3.283261   -1.8096428  0.046409233    -3.283261    1.4736182   401869 
 3648000   0.89908519   -3.2830976   -1.8095803  0.046868687   -3.2830976    1.4735173   401847 
 3649000    0.9012761   -3.2872942   -1.8100208  0.048200517   -3.2872942    1.4772734   401802 
 3650000   0.90047722    -3.284829   -1.8087731   0.05090924    -3.284829    1.4760559   401777 
 3651000   0.90031708   -3.2844169   -1.8086382  0.046595201   -3.2844169    1.4757787   401781 
 3652000   0.90078989   -3.2852136   -1.8084541   0.04235524   -3.2852136    1.4767595   401725 
 3653000    0.9022372   -3.2871498   -1.8078813   0.04719681   -3.2871498    1.4792685   401688 
 3654000   0.90177013   -3.2859858   -1.8073027  0.051045157   -3.2859858    1.4786831   401639 
 3655000   0.90333403   -3.2862854   -1.8049863   0.05481525   -3.2862854    1.4812991   401625 
 3656000   0.90333718   -3.2883225   -1.8067489  0.050252617   -3.2883225    1.4815736   401552 
 3657000   0.90216912   -3.2855354   -1.8058923  0.048700025   -3.2855354    1.4796431   401556 
 3658000   0.90055702   -3.2829877   -1.8059997  0.051521241   -3.2829877    1.4769881   401559 
 3659000    0.9010579   -3.2845215   -1.8066273  0.047964913   -3.2845215    1.4778942   401536 
 3660000   0.90021687   -3.2844103   -1.8077558  0.043953479   -3.2844103    1.4766545   401498 
 3661000   0.89972517   -3.2837148   -1.8078484   0.04986516   -3.2837148    1.4758663   401493 
 3662000   0.89902734   -3.2826788    -1.807869  0.047708873   -3.2826788    1.4748098   401469 
 3663000    0.8989288   -3.2835151   -1.8088816  0.044122912   -3.2835151    1.4746335   401473 
 3664000   0.90033756   -3.2842074   -1.8070238  0.044269696   -3.2842074    1.4771836   401408 
 3665000   0.90097621   -3.2848152   -1.8065875   0.04599179   -3.2848152    1.4782278   401409 
 3666000   0.89932977   -3.2820317   -1.8065568  0.044369163   -3.2820317     1.475475   401423 
 3667000   0.90049571   -3.2840935   -1.8066026  0.049313676   -3.2840935    1.4774909   401395 
 3668000   0.89844042   -3.2829061   -1.8087727  0.047746204   -3.2829061    1.4741334   401391 
 3669000   0.89882564   -3.2835568    -1.808806  0.042901552   -3.2835568    1.4747508   401395 
 3670000     0.897889   -3.2825557   -1.8090848  0.037452323   -3.2825557    1.4734709   401325 
 3671000    0.8979613   -3.2839897   -1.8103671  0.042280639   -3.2839897    1.4736226   401316 
 3672000    0.8977721   -3.2823822   -1.8091619  0.047742782   -3.2823822    1.4732203   401341 
 3673000   0.89788051   -3.2842913    -1.810882  0.042477205   -3.2842913    1.4734093   401338 
 3674000   0.89768036   -3.2850656   -1.8117241  0.047211509   -3.2850656    1.4733415   401267 
 3675000   0.89563785   -3.2836086   -1.8134143  0.045710554   -3.2836086    1.4701943   401211 
 3676000   0.89713117   -3.2840716   -1.8113269  0.047620124   -3.2840716    1.4727447   401184 
 3677000   0.89724431   -3.2856179   -1.8127094  0.046739689   -3.2856179    1.4729084   401190 
 3678000   0.89765739   -3.2864497    -1.812595  0.044021798   -3.2864497    1.4738547   401117 
 3679000   0.89840074   -3.2866107   -1.8114693  0.040949828   -3.2866107    1.4751414   401099 
 3680000    0.8994277   -3.2874191   -1.8105693  0.048997903   -3.2874191    1.4768497   401093 
 3681000   0.90028755   -3.2893626   -1.8109278   0.04574364   -3.2893626    1.4784348   401046 
 3682000   0.89987745   -3.2888633   -1.8111314  0.050465449   -3.2888633    1.4777319   401054 
 3683000   0.89820818   -3.2871932   -1.8119744  0.045382461   -3.2871932    1.4752188   400992 
 3684000    0.8996982   -3.2895503   -1.8118217  0.049364112   -3.2895503    1.4777286   400975 
 3685000   0.89816438   -3.2879887   -1.8127425  0.052814129   -3.2879887    1.4752462   400965 
 3686000   0.90070154   -3.2915033   -1.8120234  0.044144848   -3.2915033    1.4794799   400947 
 3687000   0.89846897   -3.2878029   -1.8118872  0.050656748   -3.2878029    1.4759158   400919 
 3688000   0.90071454   -3.2922614   -1.8126789  0.047568557   -3.2922614    1.4795824   400925 
 3689000   0.90036022   -3.2906746   -1.8115561  0.051467268   -3.2906746    1.4791185   400893 
 3690000   0.89996136   -3.2891699   -1.8106293  0.047011448   -3.2891699    1.4785407   400872 
 3691000   0.90089675   -3.2913626   -1.8113258   0.04722463   -3.2913626    1.4800368   400883 
 3692000   0.89873428   -3.2892973   -1.8126215  0.048362434   -3.2892973    1.4766757   400831 
 3693000   0.89933924    -3.289468   -1.8116619  0.051908521    -3.289468    1.4778061   400794 
 3694000   0.90012654   -3.2911151   -1.8120521  0.053491289   -3.2911151    1.4790629   400804 
 3695000   0.90029879   -3.2907686   -1.8113894   0.05062822   -3.2907686    1.4793792   400795 
 3696000   0.89874769   -3.2908948   -1.8138985  0.051086777   -3.2908948    1.4769962   400750 
 3697000   0.89896649   -3.2910567    -1.813535  0.048473582   -3.2910567    1.4775217   400705 
 3698000   0.89774565   -3.2896052   -1.8139207  0.043585237   -3.2896052    1.4756846   400659 
 3699000   0.89821404   -3.2905055   -1.8140621  0.045273354   -3.2905055    1.4764434   400662 
 3700000   0.89499874   -3.2844802   -1.8132007  0.047586445   -3.2844802    1.4712795   400629 
 3701000   0.89683814   -3.2874437   -1.8130889   0.04753464   -3.2874437    1.4743548   400615 
 3702000   0.89695659   -3.2878093   -1.8131346  0.050248838   -3.2878093    1.4746746   400581 
 3703000   0.89839876   -3.2890443   -1.8117995  0.051352166   -3.2890443    1.4772448   400527 
 3704000   0.89790408    -3.289708   -1.8130701  0.047014783    -3.289708    1.4766379   400471 
 3705000   0.89713492    -3.289537   -1.8139171  0.044978411    -3.289537    1.4756198   400404 
 3706000   0.89500358   -3.2864876   -1.8142557  0.047548158   -3.2864876    1.4722318   400372 
 3707000   0.89642801   -3.2874499    -1.812735  0.046114058   -3.2874499    1.4747149   400334 
 3708000   0.89693188   -3.2892141    -1.813615  0.042319451   -3.2892141    1.4755991   400319 
 3709000   0.89418601   -3.2853252   -1.8140817  0.046327874   -3.2853252    1.4712434   400275 
 3710000   0.89723891   -3.2883433   -1.8118481  0.047149013   -3.2883433    1.4764952   400213 
 3711000    0.8965879   -3.2879954   -1.8124757  0.041151645   -3.2879954    1.4755197   400187 
 3712000   0.89579278   -3.2859186   -1.8115822  0.045745659   -3.2859186    1.4743365   400153 
 3713000    0.8959758    -3.285691   -1.8109169  0.047547885    -3.285691    1.4747741   400116 
 3714000   0.89556124    -3.286045   -1.8117469   0.04952602    -3.286045     1.474298   400060 
 3715000   0.89737079   -3.2880615   -1.8107328  0.048871624   -3.2880615    1.4773287   400046 
 3716000   0.89928115   -3.2914111   -1.8108005  0.046904681   -3.2914111    1.4806106   400009 
 3717000   0.89709801   -3.2885161   -1.8114556  0.047890178   -3.2885161    1.4770605   399997 
 3718000   0.89654986   -3.2865759   -1.8103551  0.042139925   -3.2865759    1.4762207   399980 
 3719000   0.89680539    -3.287883   -1.8111751  0.045538593    -3.287883    1.4767079   399962 
 3720000   0.89373563   -3.2836322   -1.8118539  0.039631743   -3.2836322    1.4717783   399928 
 3721000   0.89582235   -3.2868042   -1.8115157  0.045481715   -3.2868042    1.4752884   399908 
 3722000   0.89630796   -3.2875039   -1.8111906  0.048300864   -3.2875039    1.4763133   399847 
 3723000   0.89602405   -3.2894533   -1.8133898  0.047566968   -3.2894533    1.4760635   399788 
 3724000    0.8955855   -3.2884675   -1.8131191  0.044858898   -3.2884675    1.4753484   399786 
 3725000    0.8955922   -3.2876091   -1.8121648  0.048684613   -3.2876091    1.4754444   399763 
 3726000   0.89491064   -3.2881511    -1.813575  0.053922816   -3.2881511     1.474576   399694 
 3727000   0.89631553   -3.2901635   -1.8130989  0.048499751   -3.2901635    1.4770646   399647 
 3728000   0.89690929   -3.2912911   -1.8132333  0.048658274   -3.2912911    1.4780579   399643 
 3729000   0.89633626   -3.2904168    -1.813148  0.049385417   -3.2904168    1.4772688   399601 
 3730000   0.89573609   -3.2896083   -1.8131698  0.048685203   -3.2896083    1.4764385   399558 
 3731000   0.89598433    -3.289099   -1.8122994  0.051751322    -3.289099    1.4767997   399571 
 3732000   0.89552879   -3.2910832   -1.8149014  0.050862952   -3.2910832    1.4761818   399535 
 3733000   0.89417755   -3.2899116   -1.8158538  0.051421462   -3.2899116    1.4740578   399507 
 3734000   0.89653512   -3.2935817   -1.8153859  0.045554536   -3.2935817    1.4781958   399439 
 3735000   0.89527467   -3.2912506   -1.8150849  0.045946877   -3.2912506    1.4761657   399426 
 3736000   0.89338632   -3.2896669   -1.8164746  0.045762189   -3.2896669    1.4731922   399388 
 3737000   0.89394105   -3.2920241   -1.8175775  0.047435918   -3.2920241    1.4744466   399296 
 3738000    0.8922447   -3.2911641   -1.8192943  0.049512889   -3.2911641    1.4718699   399236 
 3739000   0.89383487   -3.2950316   -1.8201692  0.046188208   -3.2950316    1.4748625   399136 
 3740000   0.89160407   -3.2921375   -1.8208085  0.053219254   -3.2921375     1.471329   399096 
 3741000   0.89295726   -3.2960326   -1.8222379  0.046451195   -3.2960326    1.4737947   399033 
 3742000   0.89337908   -3.2953685   -1.8209736  0.046024526   -3.2953685    1.4743948   399059 
 3743000   0.89414824   -3.2949997   -1.8193059  0.048145471   -3.2949997    1.4756938   399051 
 3744000   0.89475431   -3.2956858   -1.8189547  0.050053068   -3.2956858    1.4767311   399041 
 3745000   0.89464325   -3.2962433   -1.8195068  0.049332138   -3.2962433    1.4767365   398990 
 3746000   0.89405676   -3.2955925   -1.8198351  0.050155994   -3.2955925    1.4757573   398993 
 3747000   0.89230888   -3.2949996   -1.8219686  0.048409531   -3.2949996     1.473031   398950 
 3748000   0.89283711   -3.2957356    -1.821755  0.052067447   -3.2957356    1.4739806   398929 
 3749000   0.89142259    -3.294365   -1.8225905  0.049482608    -3.294365    1.4717745   398894 
 3750000   0.89238284   -3.2947813   -1.8212995  0.047716808   -3.2947813    1.4734818   398861 
 3751000   0.89181578   -3.2940576    -1.821442  0.044204134   -3.2940576    1.4726156   398842 
 3752000   0.89419951   -3.2975479   -1.8209554   0.04767083   -3.2975479    1.4765925   398831 
 3753000   0.89249082   -3.2971701   -1.8230887  0.048832211   -3.2971701    1.4740814   398747 
 3754000   0.89160287   -3.2955611   -1.8228023  0.048519783   -3.2955611    1.4727588   398708 
 3755000   0.89220945   -3.2967191   -1.8229102  0.042911972   -3.2967191    1.4738089   398695 
 3756000   0.89263846   -3.2965652   -1.8218553   0.05142846   -3.2965652    1.4747099   398643 
 3757000   0.89244007   -3.2959938   -1.8214748  0.052947368   -3.2959938     1.474519   398606 
 3758000   0.89384672   -3.2984934   -1.8215984  0.044378605   -3.2984934     1.476895   398592 
 3759000   0.89263963    -3.296778   -1.8217702  0.049473473    -3.296778    1.4750078   398563 
 3760000   0.89389454   -3.2986692   -1.8213654  0.047228582   -3.2986692    1.4773038   398503 
 3761000   0.89128388   -3.2956276   -1.8224831  0.047793574   -3.2956276    1.4731446   398461 
 3762000   0.89163978   -3.2962741   -1.8223268  0.047893465   -3.2962741    1.4739473   398403 
 3763000   0.89252327   -3.2987213   -1.8231209   0.04421123   -3.2987213    1.4756004   398351 
 3764000   0.89139921   -3.2958195   -1.8219998  0.048739224   -3.2958195    1.4738197   398330 
 3765000   0.89019124   -3.2945775   -1.8226146  0.048066632   -3.2945775    1.4719629   398292 
 3766000   0.89224533   -3.2973437   -1.8219139  0.050992035   -3.2973437    1.4754298   398273 
 3767000   0.89190865   -3.2954087    -1.820406  0.043705304   -3.2954087    1.4750027   398238 
 3768000   0.89123854   -3.2948583   -1.8209527  0.047459656   -3.2948583    1.4739056   398235 
 3769000   0.89161937   -3.2960968   -1.8214651  0.051076377   -3.2960968    1.4746317   398209 
[...]
 7812000   0.68511042   -3.1641031   -1.6967302  0.042473722   -3.1641031    1.4673728   307493 
 7813000   0.68511233   -3.1641574   -1.6968569  0.041183842   -3.1641574    1.4673006   307509 
 7814000   0.68425389   -3.1651853   -1.6993944   0.04374231   -3.1651853    1.4657909   307440 
 7815000   0.68691116   -3.1681075    -1.696696  0.045157718   -3.1681075    1.4714115   307455 
 7816000   0.68557245   -3.1645314   -1.6960066  0.048437034   -3.1645314    1.4685248   307459 
 7817000   0.68715856   -3.1687607   -1.6965559  0.049425179   -3.1687607    1.4722048   307400 
 7818000   0.68577988   -3.1667539   -1.6974407  0.050301609   -3.1667539    1.4693132   307387 
 7819000   0.68549084   -3.1660308   -1.6972414  0.044690276   -3.1660308    1.4687895   307367 
 7820000   0.68541976   -3.1668175    -1.698123  0.044711473   -3.1668175    1.4686945   307355 
 7821000   0.68595469   -3.1682333   -1.6982873  0.047235703   -3.1682333     1.469946   307333 
 7822000   0.68522406   -3.1666691   -1.6980403  0.044818896   -3.1666691    1.4686288   307281 
 7823000   0.68503702   -3.1672997   -1.6989715  0.047410675   -3.1672997    1.4683282   307260 
 7824000   0.68528064   -3.1691047     -1.70002  0.046237188   -3.1691047    1.4690847   307211 
 7825000   0.68302894   -3.1654853   -1.7010419   0.04657616   -3.1654853    1.4644435   307172 
 7826000   0.68297586    -3.164961   -1.7005503  0.045556418    -3.164961    1.4644107   307155 
 7827000   0.68430563   -3.1664671   -1.6990905  0.045170492   -3.1664671    1.4673766   307131 
 7828000   0.68359593   -3.1662353   -1.7001275  0.047305064   -3.1662353    1.4661078   307078 
 7829000   0.68312224    -3.163764   -1.6985004  0.046326729    -3.163764    1.4652636   307042 
 7830000   0.68431457    -3.166199   -1.6981914  0.047914181    -3.166199    1.4680076   307003 
 7831000   0.68522376   -3.1675029   -1.6973533  0.041719197   -3.1675029    1.4701496   306963 
 7832000   0.68317006   -3.1636658   -1.6978079  0.049331531   -3.1636658    1.4658579   306939 
 7833000   0.68447718   -3.1648085   -1.6960119  0.050367239   -3.1648085    1.4687966   306911 
 7834000   0.68347402   -3.1634099   -1.6965796  0.045949942   -3.1634099    1.4668303   306872 
 7835000    0.6826812   -3.1620504   -1.6968834  0.048165256   -3.1620504     1.465167   306864 
 7836000   0.68386956   -3.1640694   -1.6961605  0.041548954   -3.1640694    1.4679088   306824 
 7837000   0.68210088   -3.1620619   -1.6978827  0.044145583   -3.1620619    1.4641792   306810 
 7838000   0.68222988   -3.1645645   -1.6999652  0.045349904   -3.1645645    1.4645993   306780 
 7839000   0.68177074   -3.1630578   -1.6994728  0.044185855   -3.1630578     1.463585   306786 
 7840000    0.6826992   -3.1621538   -1.6965231  0.047850771   -3.1621538    1.4656307   306775 
 7841000   0.68252669   -3.1636909   -1.6980435  0.042725252   -3.1636909    1.4656474   306694 
 7842000   0.68228413   -3.1599672   -1.6948742  0.045675732   -3.1599672    1.4650931   306701 
 7843000   0.68311957   -3.1614361   -1.6944774  0.044217408   -3.1614361    1.4669588   306686 
 7844000   0.68411633   -3.1624715   -1.6934057  0.044676171   -3.1624715    1.4690657   306693 
 7845000   0.68349348   -3.1603993   -1.6924796  0.048121155   -3.1603993    1.4679197   306653 
 7846000   0.68327919   -3.1614233   -1.6939016  0.039299612   -3.1614233    1.4675217   306640 
 7847000   0.68272314    -3.157803   -1.6914182  0.047034825    -3.157803    1.4663848   306628 
 7848000   0.68352518   -3.1594336   -1.6911538  0.042977449   -3.1594336    1.4682798   306592 
 7849000   0.68035819   -3.1562422   -1.6946128  0.048284484   -3.1562422    1.4616294   306560 
 7850000   0.68303079   -3.1620155   -1.6945009  0.044155928   -3.1620155    1.4675146   306530 
 7851000   0.68235676   -3.1612497   -1.6951737  0.045905594   -3.1612497     1.466076   306528 
 7852000   0.68272216   -3.1606688   -1.6936594  0.046069285   -3.1606688    1.4670094   306497 
 7853000   0.68246125   -3.1598826   -1.6934051  0.047796138   -3.1598826    1.4664775   306491 
 7854000   0.68237061   -3.1588985   -1.6923717  0.047873044   -3.1588985    1.4665268   306440 
 7855000   0.68186821   -3.1583592   -1.6926444  0.046021782   -3.1583592    1.4657149   306384 
 7856000   0.68309525   -3.1634355   -1.6948961  0.040218932   -3.1634355    1.4685394   306345 
 7857000   0.68262946   -3.1636773   -1.6957895  0.044430741   -3.1636773    1.4678878   306272 
 7858000    0.6818042   -3.1595442   -1.6933113  0.048107634   -3.1595442    1.4662329   306247 
 7859000   0.68135975   -3.1604292   -1.6951042  0.044538873   -3.1604292    1.4653249   306237 
 7860000   0.68148337    -3.161291   -1.6956236  0.044164124    -3.161291    1.4656674   306221 
 7861000   0.68032486   -3.1598262   -1.6963971  0.047847529   -3.1598262    1.4634291   306168 
 7862000   0.68134526   -3.1634489   -1.6976143  0.046032477   -3.1634489    1.4658347   306124 
 7863000   0.68129103   -3.1618409   -1.6959314  0.044801143   -3.1618409    1.4659096   306084 
 7864000   0.68122037   -3.1636566   -1.6978895  0.044550982   -3.1636566    1.4657671   306082 
 7865000   0.68094833   -3.1619074   -1.6968166  0.047861406   -3.1619074    1.4650908   306101 
 7866000   0.68119739   -3.1619462   -1.6957879  0.043110456   -3.1619462    1.4661583   305990 
 7867000   0.68242337   -3.1623257   -1.6936679  0.044879714   -3.1623257    1.4686578   306019 
 7868000    0.6831192   -3.1623358   -1.6922285   0.04535035   -3.1623358    1.4701073   306029 
 7869000   0.68280147   -3.1621944    -1.692694  0.046210952   -3.1621944    1.4695004   306013 
 7870000   0.68227842   -3.1627586   -1.6941248  0.048606358   -3.1627586    1.4686339   305959 
 7871000   0.68102965   -3.1613737   -1.6951308  0.042642758   -3.1613737    1.4662429   305897 
 7872000   0.67997052   -3.1609128   -1.6969119  0.047259114   -3.1609128    1.4640009   305889 
 7873000   0.68115279   -3.1598933   -1.6934188  0.047520784   -3.1598933    1.4664745   305904 
 7874000     0.681742   -3.1593994   -1.6917715  0.045173192   -3.1593994    1.4676279   305928 
 7875000   0.68019866   -3.1586039   -1.6939873   0.05276235   -3.1586039    1.4646166   305863 
 7876000   0.68140828    -3.160699   -1.6934874  0.044976927    -3.160699    1.4672116   305865 
 7877000   0.68096139   -3.1603002   -1.6937727  0.043645048   -3.1603002    1.4665274   305807 
 7878000   0.68005115   -3.1582594   -1.6936109   0.04625389   -3.1582594    1.4646486   305790 
 7879000   0.67863408   -3.1566461     -1.69493  0.045304105   -3.1566461    1.4617161   305765 
 7880000   0.67880435   -3.1593991   -1.6971585  0.045834601   -3.1593991    1.4622407   305732 
 7881000   0.68035117   -3.1627082    -1.696819  0.047951153   -3.1627082    1.4658892   305666 
 7882000   0.67920937   -3.1616577   -1.6980419  0.041554931   -3.1616577    1.4636158   305627 
 7883000   0.67940146   -3.1601752   -1.6962461  0.047545518   -3.1601752    1.4639291   305648 
 7884000   0.68041521   -3.1618961   -1.6958114  0.042621082   -3.1618961    1.4660847   305654 
 7885000   0.68105328    -3.163539   -1.6958922  0.047065949    -3.163539    1.4676468   305615 
 7886000   0.68036495   -3.1632164   -1.6966786  0.046986359   -3.1632164    1.4665378   305537 
 7887000   0.68115283   -3.1661034   -1.6976991  0.046293098   -3.1661034    1.4684043   305502 
 7888000   0.68065873   -3.1652704   -1.6978448   0.04868275   -3.1652704    1.4674256   305484 
 7889000   0.67933332   -3.1648556   -1.7000909  0.043694572   -3.1648556    1.4647647   305443 
 7890000   0.67880041   -3.1642532   -1.7004171  0.049115627   -3.1642532    1.4638361   305397 
 7891000   0.68042458   -3.1671916    -1.699752  0.046205248   -3.1671916    1.4674396   305376 
 7892000   0.67921048   -3.1641924   -1.6994576   0.04696202   -3.1641924    1.4647348   305394 
 7893000   0.67907856    -3.163246   -1.6984791  0.044376197    -3.163246    1.4647669   305328 
 7894000   0.67949993   -3.1647004   -1.6988566  0.048119138   -3.1647004    1.4658438   305293 
 7895000   0.67871164   -3.1628564   -1.6984013  0.046662188   -3.1628564    1.4644551   305228 
 7896000   0.67851868     -3.16325    -1.699029  0.044529328     -3.16325     1.464221   305190 
 7897000   0.67893227   -3.1645554   -1.6994946  0.046643447   -3.1645554    1.4650608   305201 
 7898000   0.68026108   -3.1665645   -1.6985257  0.051122176   -3.1665645    1.4680388   305178 
 7899000    0.6800042   -3.1668195   -1.6991427  0.048605681   -3.1668195    1.4676768   305138 
 7900000   0.67859509   -3.1635142   -1.6989315  0.050803434   -3.1635142    1.4645827   305149 
 7901000   0.67851206   -3.1641606   -1.6994835  0.047500417   -3.1641606    1.4646771   305092 
 7902000    0.6787686   -3.1647997   -1.6994968  0.044738686   -3.1647997    1.4653029   305077 
 7903000    0.6779609   -3.1627106   -1.6988778  0.047331426   -3.1627106    1.4638328   305020 
 7904000   0.67894241   -3.1655374   -1.6993643  0.050526148   -3.1655374    1.4661731   304974 
 7905000   0.67923209    -3.166327    -1.699509  0.047030717    -3.166327    1.4668179   304970 
 7906000   0.67944129   -3.1619816   -1.6948466   0.05011008   -3.1619816     1.467135   304998 
 7907000   0.67776529   -3.1597135   -1.6961015  0.045312998   -3.1597135    1.4636119   304978 
 7908000   0.67797327   -3.1601083   -1.6957496  0.049367994   -3.1601083    1.4643588   304916 
 7909000    0.6780408    -3.163579   -1.6987573  0.042905017    -3.163579    1.4648217   304850 
 7910000   0.67860614   -3.1640599   -1.6978581  0.048207598   -3.1640599    1.4662017   304817 
 7911000    0.6782108   -3.1624114   -1.6971408  0.047597151   -3.1624114    1.4652707   304833 
 7912000   0.67918667   -3.1639797   -1.6966199  0.046922555   -3.1639797    1.4673598   304837 
 7913000   0.68003179    -3.163706     -1.69453  0.048939399    -3.163706     1.469176   304839 
 7914000   0.67976937   -3.1616247   -1.6929386    0.0502296   -3.1616247    1.4686861   304823 
 7915000    0.6780564   -3.1601562   -1.6950702   0.04658202   -3.1601562    1.4650861   304802 
 7916000   0.67850591   -3.1589903   -1.6929281  0.046473195   -3.1589903    1.4660621   304801 
 7917000   0.67796834   -3.1588637   -1.6937804  0.044475749   -3.1588637    1.4650833   304763 
 7918000   0.67651515   -3.1551663   -1.6931898  0.050183158   -3.1551663    1.4619765   304756 
 7919000   0.67962498   -3.1579261   -1.6894171   0.04389935   -3.1579261    1.4685091   304795 
 7920000   0.67780068   -3.1540104   -1.6893327  0.048223867   -3.1540104    1.4646777   304772 
 7921000   0.67881947   -3.1550077   -1.6881525  0.044042347   -3.1550077    1.4668552   304777 
 7922000   0.67873035   -3.1542772   -1.6874991  0.049427473   -3.1542772    1.4667781   304753 
 7923000   0.67864512   -3.1549057   -1.6880856  0.044565518   -3.1549057    1.4668201   304706 
 7924000   0.67742848   -3.1543804   -1.6899833  0.048663875   -3.1543804    1.4643971   304663 
 7925000   0.67746527   -3.1555003   -1.6909083  0.041917785   -3.1555003     1.464592   304639 
 7926000    0.6764432     -3.15448   -1.6919823  0.042485289     -3.15448    1.4624977   304615 
 7927000   0.67780262   -3.1576023   -1.6921462  0.044179143   -3.1576023     1.465456   304611 
 7928000   0.67776149   -3.1552971    -1.689752  0.043367501   -3.1552971    1.4655451   304574 
 7929000   0.67741463   -3.1543027   -1.6891516  0.042653077   -3.1543027    1.4651511   304500 
 7930000   0.67872449   -3.1565554   -1.6885857  0.042987208   -3.1565554    1.4679696   304503 
 7931000   0.67971885   -3.1596156   -1.6891524   0.04547826   -3.1596156    1.4704632   304432 
 7932000   0.67797412   -3.1555714   -1.6888248  0.048615637   -3.1555714    1.4667465   304420 
 7933000   0.67926288   -3.1573302   -1.6876749  0.048400935   -3.1573302    1.4696554   304395 
 7934000   0.67806197   -3.1566545   -1.6895734  0.047096154   -3.1566545    1.4670812   304390 
 7935000   0.67871034   -3.1575784   -1.6890944  0.046696367   -3.1575784     1.468484   304390 
 7936000   0.67588174   -3.1519938   -1.6895723  0.049409772   -3.1519938    1.4624216   304378 
 7937000   0.67758202    -3.156587   -1.6905635  0.048114954    -3.156587    1.4660235   304394 
 7938000   0.67819536   -3.1581369    -1.690772  0.047383469   -3.1581369     1.467365   304391 
 7939000   0.67771426   -3.1580907   -1.6916125  0.046430175   -3.1580907    1.4664782   304359 
 7940000   0.67651266   -3.1560562     -1.69213  0.047861145   -3.1560562    1.4639262   304349 
 7941000   0.67740997   -3.1574478   -1.6912812  0.045215907   -3.1574478    1.4661666   304287 
 7942000   0.67778929   -3.1586238   -1.6915735  0.046698702   -3.1586238    1.4670503   304274 
 7943000   0.67720972   -3.1584604   -1.6926695  0.044957932   -3.1584604     1.465791   304275 
 7944000   0.67731444   -3.1581514   -1.6920808  0.043010745   -3.1581514    1.4660706   304264 
 7945000   0.67836766   -3.1589879   -1.6906424  0.050454773   -3.1589879    1.4683456   304265 
 7946000   0.67771916   -3.1580432   -1.6909181  0.050843404   -3.1580432    1.4671251   304227 
 7947000    0.6776001   -3.1590888   -1.6920141  0.048387473   -3.1590888    1.4670747   304184 
 7948000    0.6770286   -3.1554219   -1.6895557   0.05026049   -3.1554219    1.4658663   304178 
 7949000   0.67725356   -3.1580981    -1.691552  0.043638208   -3.1580981    1.4665462   304138 
 7950000   0.67661553   -3.1566288   -1.6913823  0.050291856   -3.1566288    1.4652465   304121 
 7951000   0.67755308   -3.1580113   -1.6906525  0.047257581   -3.1580113    1.4673588   304104 
 7952000   0.67646805    -3.156935   -1.6919934   0.04582771    -3.156935    1.4649416   304118 
 7953000   0.67625912   -3.1553542   -1.6907495  0.047287395   -3.1553542    1.4646047   304094 
 7954000    0.6762416   -3.1553391   -1.6907146  0.048074949   -3.1553391    1.4646245   304082 
 7955000   0.67733342   -3.1555634   -1.6885212  0.048524501   -3.1555634    1.4670423   304071 
 7956000   0.67660878   -3.1542657   -1.6888556  0.046705178   -3.1542657    1.4654101   304084 
 7957000   0.67681331   -3.1541313   -1.6880612  0.050212128   -3.1541313    1.4660701   304039 
 7958000   0.67712935   -3.1534539   -1.6865255  0.048403377   -3.1534539    1.4669283   304003 
 7959000   0.67801541   -3.1555143   -1.6865505  0.043445241   -3.1555143    1.4689639   303979 
 7960000   0.67878192   -3.1572008   -1.6863149   0.04662079   -3.1572008    1.4708859   303925 
 7961000   0.67653289   -3.1541977   -1.6879056   0.04725968   -3.1541977    1.4662921   303867 
 7962000   0.67642828   -3.1528744   -1.6867221   0.04544518   -3.1528744    1.4661523   303849 
 7963000   0.67614913    -3.152925   -1.6871897  0.044990657    -3.152925    1.4657353   303810 
 7964000    0.6764461   -3.1531326   -1.6865942  0.048899149   -3.1531326    1.4665384   303777 
 7965000   0.67593388   -3.1511986   -1.6854764  0.049385959   -3.1511986    1.4657222   303716 
 7966000   0.67578802   -3.1511413   -1.6857595  0.050038576   -3.1511413    1.4653818   303721 
 7967000   0.67597867   -3.1514648   -1.6856406  0.047368679   -3.1514648    1.4658242   303715 
 7968000   0.67662646   -3.1519943   -1.6846736  0.047726708   -3.1519943    1.4673207   303696 
 7969000   0.67575057    -3.150793   -1.6852752  0.044853927    -3.150793    1.4655177   303676 
 7970000   0.67686641   -3.1520889   -1.6838224  0.043992306   -3.1520889    1.4682665   303608 
 7971000   0.67480514    -3.149842   -1.6856659   0.04552465    -3.149842    1.4641761   303529 
 7972000   0.67654878   -3.1537598   -1.6856408  0.044319292   -3.1537598     1.468119   303496 
 7973000   0.67633906   -3.1531306   -1.6853215  0.047930531   -3.1531306     1.467809   303466 
 7974000   0.67619628    -3.152657    -1.685066  0.050410798    -3.152657    1.4675911   303447 
 7975000    0.6768553   -3.1542396   -1.6850197  0.046570658   -3.1542396    1.4692199   303406 
 7976000   0.67602753     -3.15119    -1.683525  0.050399525     -3.15119    1.4676649   303356 
 7977000   0.67689975   -3.1556846   -1.6860049  0.045992194   -3.1556846    1.4696797   303331 
 7978000   0.67558833   -3.1539466   -1.6870417  0.051015396   -3.1539466    1.4669049   303316 
 7979000   0.67570021   -3.1538869   -1.6867826  0.049555401   -3.1538869    1.4671043   303325 
 7980000   0.67557966   -3.1541456   -1.6871144  0.045299015   -3.1541456    1.4670311   303286 
 7981000   0.67557668   -3.1515581   -1.6846399  0.046961223   -3.1515581    1.4669183   303308 
 7982000   0.67722214   -3.1551264   -1.6846983  0.045461065   -3.1551264    1.4704281   303321 
 7983000   0.67603214   -3.1491866   -1.6813471  0.051832718   -3.1491866    1.4678395   303322 
 7984000   0.67519449   -3.1508867   -1.6845663  0.043880966   -3.1508867    1.4663204   303260 
 7985000   0.67597555   -3.1532952   -1.6850074  0.044578558   -3.1532952    1.4682878   303204 
 7986000   0.67493475   -3.1493887   -1.6829747    0.0479203   -3.1493887     1.466414   303124 
 7987000   0.67444307   -3.1497696   -1.6843175  0.044758103   -3.1497696    1.4654521   303102 
 7988000   0.67483272   -3.1506391   -1.6842145  0.043804047   -3.1506391    1.4664245   303076 
 7989000   0.67440779   -3.1526194    -1.686891  0.044717905   -3.1526194    1.4657285   303029 
 7990000   0.67426518   -3.1520034   -1.6865075   0.04870532   -3.1520034    1.4654959   303013 
 7991000   0.67455183   -3.1535503   -1.6871942  0.045932389   -3.1535503     1.466356   302964 
 7992000   0.67550404    -3.156192   -1.6876885  0.044017562    -3.156192    1.4685035   302948 
 7993000   0.67384427   -3.1531308   -1.6881388  0.042859601   -3.1531308     1.464992   302928 
 7994000   0.67278455   -3.1518295   -1.6891269    0.0438107   -3.1518295    1.4627026   302925 
 7995000    0.6745777   -3.1571579   -1.6901839  0.051994469   -3.1571579     1.466974   302848 
 7996000    0.6739963   -3.1547575   -1.6890721  0.050029548   -3.1547575    1.4656854   302853 
 7997000    0.6742692   -3.1560422   -1.6893178   0.04733898   -3.1560422    1.4667244   302761 
 7998000   0.67406542   -3.1561934   -1.6898444  0.047056751   -3.1561934    1.4663489   302747 
 7999000   0.67328249   -3.1543337   -1.6894847  0.047146503   -3.1543337     1.464849   302705 
 8000000   0.67486749   -3.1579963   -1.6895728  0.045113431   -3.1579963    1.4684236   302679 
Loop time of 9527.26 on 192 procs for 5000000 steps with 302679 atoms

Performance: 226717.956 tau/day, 524.810 timesteps/s
99.1% CPU use with 192 MPI tasks x 1 OpenMP threads

MPI task timing breakdown:
Section |  min time  |  avg time  |  max time  |%varavg|  %CPU | %total
-----------------------------------------------------------------------
Pair    | 1044.3     | 2583.1     | 2952.8     |1114.2 |  99.0 | 27.11
Bond    | 3.1494     | 3.359      | 3.5731     |   4.4 | 100.0 |  0.04
Neigh   | 659.99     | 1256       | 1420.4     | 607.7 |  99.4 | 13.18
Comm    | 1315       | 1919.8     | 4132.5     |1844.6 |  98.8 | 20.15
Output  | 289.81     | 293.65     | 293.68     |   1.6 |  98.7 |  3.08
Modify  | 3300.8     | 3385       | 3717.5     | 242.0 |  99.2 | 35.53
Other   |            | 86.31      |            |       |       |  0.91

Nlocal:        1576.45 ave        1965 max        1386 min
Histogram: 6 12 51 94 21 2 4 0 0 2
Nghost:        2725.55 ave        3155 max        1572 min
Histogram: 3 7 7 25 8 11 5 2 41 83
Neighs:        41429.9 ave       55425 max        5096 min
Histogram: 21 2 1 0 0 0 7 46 105 10

Total # of neighbors = 7954532
Ave neighs/atom = 26.280422
Ave special neighs/atom = 0.0000000
Neighbor list builds = 505000
Dangerous builds = 450000

write_restart   restart_write.dat
System init for write_restart ...
write_data	data.write
System init for write_data ...
WARNING: Not all mixed pair coeffs generated from mixing. Use write_data with 'pair ij' option to store all pair coeffs. (src/write_data.cpp:312)

Total wall time: 2:38:50
