LAMMPS (24 Dec 2020)
OMP_NUM_THREADS environment is not set. Defaulting to 1 thread. (src/comm.cpp:94)
  using 1 OpenMP thread(s) per MPI task
Created orthogonal box = (0.0000000 0.0000000 0.0000000) to (80.000000 80.000000 160.00000)
  6 by 4 by 8 MPI processor grid
Lattice spacing in x,y,z = 1.1485556 1.1485556 1.1485556
Created 421400 atoms
  create_atoms CPU = 0.161 seconds
Lattice spacing in x,y,z = 2.8114422 2.8114422 2.8114422
Created 17661 atoms
  create_atoms CPU = 0.005 seconds
439061 atoms in group solvent
System init for delete_atoms ...
Neighbor list info ...
  update every 1 steps, delay 10 steps, check yes
  max neighbors/atom: 2000, page size: 100000
  master list distance cutoff = 2.9
  ghost atom cutoff = 2.9
  binsize = 1.45, bins = 56 56 111
  2 neighbor lists, perpetual/occasional/extra = 1 1 0
  (1) command delete_atoms, occasional
      attributes: full, newton on
      pair build: full/bin
      stencil: full/bin/3d
      bin: standard
  (2) pair lj/smooth/linear, perpetual
      attributes: half, newton on
      pair build: half/bin/newton
      stencil: half/bin/3d/newton
      bin: standard
WARNING: Ignoring 'compress yes' for molecular system (src/delete_atoms.cpp:125)
Deleted 0 atoms, new total = 439061
Balancing ...
Neighbor list info ...
  update every 1 steps, delay 10 steps, check yes
  max neighbors/atom: 2000, page size: 100000
  master list distance cutoff = 2.9
  ghost atom cutoff = 2.9
  binsize = 1.45, bins = 56 56 111
  1 neighbor lists, perpetual/occasional/extra = 1 0 0
  (1) pair lj/smooth/linear, perpetual
      attributes: half, newton on
      pair build: half/bin/newton
      stencil: half/bin/3d/newton
      bin: standard
 rebalancing time: 0.008 seconds
  iteration count = 5
  initial/final maximal load/proc = 3888.0000 2808.0000
  initial/final imbalance factor  = 1.7002102 1.2279296
  x cuts: 0.0000000 0.16666667 0.33333333 0.50000000 0.66666667 0.83333333 1.0000000
  y cuts: 0.0000000 0.25000000 0.50000000 0.75000000 1.0000000
  z cuts: 0.0000000 0.089843750 0.17578125 0.25390625 0.33593750 0.41406250 0.50390625 0.58203125 1.0000000
dynamic group thermo defined
New timer settings: style=full  mode=nosync  timeout=off
Setting up Verlet run ...
  Unit style    : lj
  Current step  : 0
  Time step     : 0.005
Per MPI rank memory allocation (min/avg/max) = 9.982 | 10.06 | 10.45 Mbytes
Step Temp E_pair E_vdwl TotEng Press PotEng KinEng Atoms 
       0         0.85  -0.77633128  -0.77633128   0.49866582    4.1520259  -0.77633128    1.2749971   439061 
    1000    1.8858318   -2.8133671   -2.8133671  0.015374186    2.0848458   -2.8133671    2.8287413   439061 
    2000    1.7691355   -2.8234903   -2.8234903  -0.16979307    1.2228428   -2.8234903    2.6536972   439061 
    3000    1.5941174   -2.7205353   -2.7205353  -0.32936462   0.89407403   -2.7205353    2.3911706   439061 
    4000    1.5057444   -2.6962499   -2.6962499  -0.43763843   0.69778937   -2.6962499    2.2586115   439061 
    5000    1.4530556    -2.663694    -2.663694  -0.48411553   0.56061462    -2.663694    2.1795785   439061 
    6000    1.4188294   -2.6231269   -2.6231269  -0.49488771   0.45649642   -2.6231269    2.1282392   439061 
    7000    1.3923902   -2.5780598   -2.5780598  -0.48947928   0.44244032   -2.5780598    2.0885805   439061 
    8000     1.378326   -2.5435602   -2.5435602  -0.47607593    0.4661599   -2.5435602    2.0674843   439061 
    9000    1.3803164   -2.5320523   -2.5320523  -0.46158243   0.50912268   -2.5320523    2.0704699   439061 
   10000    1.3879551   -2.5320078   -2.5320078   -0.4500799   0.55765804   -2.5320078    2.0819279   439061 
   11000    1.3969712   -2.5371165   -2.5371165  -0.44166445   0.57865682   -2.5371165    2.0954521   439061 
   12000    1.4030992   -2.5392014   -2.5392014  -0.43455735   0.59161377   -2.5392014     2.104644   439061 
   13000    1.3948634   -2.5230338   -2.5230338  -0.43074349    0.5721338   -2.5230338    2.0922903   439061 
   14000    1.3771426   -2.4920749   -2.4920749  -0.42636568   0.51849554   -2.4920749    2.0657092   439061 
   15000    1.3563605   -2.4575524   -2.4575524  -0.42301631   0.47220489   -2.4575524    2.0345361   439061 
   16000    1.3394081    -2.429708    -2.429708  -0.42060043    0.4430062    -2.429708    2.0091075   439061 
   17000    1.3284319   -2.4136767   -2.4136767  -0.42103341   0.44060493   -2.4136767    1.9926433   439061 
   18000    1.3265313   -2.4200448   -2.4200448  -0.43025248   0.46597578   -2.4200448    1.9897924   439061 
   19000    1.3166112   -2.4390751   -2.4390751  -0.46416282   0.50153332   -2.4390751    1.9749123   439061 
   20000    1.2969841   -2.4626164   -2.4626164  -0.51714474   0.52123846   -2.4626164    1.9454717   439061 
   21000    1.2779626     -2.48038     -2.48038  -0.56344056   0.51120886     -2.48038    1.9169395   439061 
   22000    1.2635382   -2.4942529   -2.4942529  -0.59895001   0.50410297   -2.4942529    1.8953029   439061 
   23000     1.255558   -2.5125775   -2.5125775  -0.62924476   0.50165493   -2.5125775    1.8833327   439061 
   24000    1.2478062   -2.5242031   -2.5242031  -0.65249804   0.51282691   -2.5242031    1.8717051   439061 
   25000    1.2412115   -2.5362411   -2.5362411  -0.67442808   0.50718602   -2.5362411     1.861813   439061 
   26000     1.232203   -2.5397153   -2.5397153  -0.69141493   0.49002175   -2.5397153    1.8483003   439061 
   27000    1.2215207   -2.5351587   -2.5351587  -0.70288174   0.46811365   -2.5351587    1.8322769   439061 
   28000    1.2078296   -2.5257213   -2.5257213  -0.71398114   0.44172157   -2.5257213    1.8117402   439061 
   29000    1.1952157   -2.5143666   -2.5143666  -0.72154709   0.41131834   -2.5143666    1.7928195   439061 
   30000    1.1840396   -2.5024575   -2.5024575  -0.72640213   0.38796191   -2.5024575    1.7760554   439061 
   31000     1.170723   -2.4868605   -2.4868605     -0.73078   0.36997513   -2.4868605    1.7560805   439061 
   32000    1.1575662   -2.4703998   -2.4703998   -0.7340545   0.34035846   -2.4703998    1.7363453   439061 
   33000    1.1477956   -2.4563872   -2.4563872   -0.7346977   0.32729079   -2.4563872    1.7216895   439061 
   34000    1.1423866    -2.448645    -2.448645  -0.73506896   0.31223254    -2.448645     1.713576   439061 
   35000    1.1384966   -2.4411168   -2.4411168  -0.73337572   0.30942391   -2.4411168    1.7077411   439061 
   36000     1.136055   -2.4357538   -2.4357538  -0.73167517   0.30199042   -2.4357538    1.7040786   439061 
   37000    1.1355178   -2.4335238   -2.4335238  -0.73025101   0.29577758   -2.4335238    1.7032728   439061 
   38000    1.1340661   -2.4299851   -2.4299851  -0.72888972    0.2972794   -2.4299851    1.7010953   439061 
   39000    1.1341907   -2.4277801   -2.4277801  -0.72649795   0.29844205   -2.4277801    1.7012821   439061 
   40000    1.1352051   -2.4265303   -2.4265303  -0.72372662    0.2972528   -2.4265303    1.7028037   439061 
   41000    1.1352829   -2.4239181   -2.4239181  -0.72099763   0.29953717   -2.4239181    1.7029205   439061 
   42000    1.1352496   -2.4215337   -2.4215337  -0.71866313   0.29142808   -2.4215337    1.7028705   439061 
   43000    1.1329583   -2.4151116   -2.4151116  -0.71567803    0.2864428   -2.4151116    1.6994336   439061 
   44000    1.1291185    -2.408178    -2.408178  -0.71450405   0.28581295    -2.408178    1.6936739   439061 
   45000    1.1285673   -2.4069084   -2.4069084  -0.71406134   0.27328261   -2.4069084    1.6928471   439061 
   46000    1.1279451   -2.4043427   -2.4043427  -0.71242893   0.27199953   -2.4043427    1.6919138   439061 
   47000     1.127998   -2.4046482   -2.4046482  -0.71265498   0.28024561   -2.4046482    1.6919932   439061 
   48000    1.1293026   -2.4123713   -2.4123713  -0.71842129    0.2983487   -2.4123713      1.69395   439061 
   49000    1.1282708   -2.4246891   -2.4246891  -0.73228679   0.30702534   -2.4246891    1.6924023   439061 
   50000    1.1251776   -2.4371016   -2.4371016   -0.7493391   0.31857106   -2.4371016    1.6877625   439061 
   51000    1.1217566   -2.4479467   -2.4479467  -0.76531568   0.32062639   -2.4479467    1.6826311   439061 
   52000    1.1173302    -2.453788    -2.453788  -0.77779643   0.31922608    -2.453788    1.6759915   439061 
   53000     1.113969   -2.4598898   -2.4598898  -0.78894013   0.31606735   -2.4598898    1.6709497   439061 
   54000    1.1133166   -2.4677702   -2.4677702  -0.79779905    0.3156874   -2.4677702    1.6699712   439061 
   55000    1.1105201   -2.4727304   -2.4727304  -0.80695415   0.31467912   -2.4727304    1.6657763   439061 
   56000    1.1076961   -2.4745891   -2.4745891  -0.81304884   0.31117207   -2.4745891    1.6615403   439061 
   57000    1.1077783   -2.4798993   -2.4798993  -0.81823567   0.30826247   -2.4798993    1.6616637   439061 
   58000    1.1032619   -2.4794451   -2.4794451  -0.82455598   0.30200048   -2.4794451    1.6548891   439061 
   59000    1.0984484   -2.4768131   -2.4768131  -0.82914425   0.29430838   -2.4768131    1.6476688   439061 
   60000      1.09495     -2.47374     -2.47374  -0.83131877   0.28241057     -2.47374    1.6424212   439061 
   61000    1.0909184   -2.4689838   -2.4689838  -0.83261003   0.28580642   -2.4689838    1.6363738   439061 
   62000    1.0858445     -2.46275     -2.46275  -0.83398695   0.27549765     -2.46275     1.628763   439061 
   63000    1.0802481   -2.4577367   -2.4577367  -0.83736836   0.26035937   -2.4577367    1.6203684   439061 
   64000    1.0773622   -2.4546982   -2.4546982  -0.83865855   0.25162116   -2.4546982    1.6160396   439061 
   65000    1.0724665   -2.4485101   -2.4485101  -0.83981409   0.25208314   -2.4485101     1.608696   439061 
   66000    1.0700354    -2.445805    -2.445805  -0.84075544    0.2449511    -2.445805    1.6050495   439061 
   67000    1.0674003   -2.4406145   -2.4406145  -0.83951776   0.23936016   -2.4406145    1.6010968   439061 
   68000    1.0656785   -2.4383835   -2.4383835   -0.8398695   0.23344884   -2.4383835     1.598514   439061 
   69000    1.0646758   -2.4368009   -2.4368009  -0.83979076   0.22843875   -2.4368009    1.5970101   439061 
   70000    1.0632094   -2.4327732   -2.4327732  -0.83796275   0.23024326   -2.4327732    1.5948105   439061 
   71000    1.0636022   -2.4323831   -2.4323831  -0.83698345   0.22350986   -2.4323831    1.5953996   439061 
   72000    1.0633277    -2.430834    -2.430834  -0.83584605   0.22327833    -2.430834     1.594988   439061 
   73000    1.0622663   -2.4273713   -2.4273713  -0.83397546   0.22322902   -2.4273713    1.5933958   439061 
   74000    1.0625625   -2.4275245   -2.4275245  -0.83368443    0.2184168   -2.4275245    1.5938401   439061 
   75000    1.0615045   -2.4245376   -2.4245376  -0.83228447   0.22236861   -2.4245376    1.5922531   439061 
   76000     1.061908   -2.4245762   -2.4245762  -0.83171784   0.21777044   -2.4245762    1.5928583   439061 
   77000    1.0637301   -2.4265296   -2.4265296  -0.83093811   0.21870755   -2.4265296    1.5955915   439061 
   78000    1.0637479   -2.4260839   -2.4260839  -0.83046575   0.22772655   -2.4260839    1.5956182   439061 
   79000    1.0651803   -2.4285568   -2.4285568  -0.83079002   0.22528757   -2.4285568    1.5977668   439061 
   80000    1.0653094   -2.4331004   -2.4331004  -0.83513987   0.23749874   -2.4331004    1.5979605   439061 
   81000    1.0662955   -2.4389519   -2.4389519  -0.83951235   0.23879822   -2.4389519    1.5994396   439061 
   82000    1.0657356   -2.4479305   -2.4479305  -0.84933071   0.24700664   -2.4479305    1.5985998   439061 
   83000    1.0648979   -2.4541908   -2.4541908  -0.85684762   0.24908212   -2.4541908    1.5973431   439061 
   84000    1.0639268   -2.4611009   -2.4611009  -0.86521427   0.24762878   -2.4611009    1.5958866   439061 
   85000    1.0624875   -2.4648021   -2.4648021  -0.87107445    0.2524682   -2.4648021    1.5937276   439061 
   86000    1.0619633   -2.4697359   -2.4697359  -0.87679456   0.24894678   -2.4697359    1.5929413   439061 
   87000    1.0603796   -2.4718864   -2.4718864  -0.88132054   0.24952166   -2.4718864    1.5905658   439061 
   88000    1.0591294   -2.4745813   -2.4745813   -0.8858908   0.25126455   -2.4745813    1.5886905   439061 
   89000    1.0578518   -2.4762676   -2.4762676   -0.8894935   0.25017727   -2.4762676    1.5867741   439061 
   90000     1.058074   -2.4801042   -2.4801042  -0.89299679   0.24403554   -2.4801042    1.5871074   439061 
   91000    1.0546026   -2.4783572   -2.4783572  -0.89645688   0.24524324   -2.4783572    1.5819003   439061 
   92000    1.0538232   -2.4779775   -2.4779775  -0.89724624   0.24100893   -2.4779775    1.5807313   439061 
   93000    1.0508118   -2.4771696   -2.4771696  -0.90095555   0.23727119   -2.4771696    1.5762141   439061 
   94000    1.0476873   -2.4750776   -2.4750776  -0.90355016   0.23259764   -2.4750776    1.5715274   439061 
   95000    1.0443993   -2.4720973   -2.4720973   -0.9055019   0.22928608   -2.4720973    1.5665954   439061 
   96000    1.0426844   -2.4690395   -2.4690395  -0.90501646   0.22718175   -2.4690395    1.5640231   439061 
   97000    1.0430625   -2.4697336   -2.4697336   -0.9051433   0.21981853   -2.4697336    1.5645902   439061 
   98000    1.0387461   -2.4647208   -2.4647208  -0.90660523   0.21824412   -2.4647208    1.5581155   439061 
   99000    1.0378166   -2.4637098   -2.4637098  -0.90698845    0.2161425   -2.4637098    1.5567213   439061 
  100000    1.0348664   -2.4589047   -2.4589047   -0.9066086   0.20817869   -2.4589047    1.5522961   439061 
  101000     1.034839   -2.4585456   -2.4585456  -0.90629062   0.21261588   -2.4585456     1.552255   439061 
  102000    1.0333641   -2.4566001   -2.4566001  -0.90655743   0.20251219   -2.4566001    1.5500427   439061 
  103000    1.0319997   -2.4553677   -2.4553677  -0.90737164   0.19924216   -2.4553677    1.5479961   439061 
  104000    1.0319634   -2.4542136   -2.4542136  -0.90627208   0.19703467   -2.4542136    1.5479415   439061 
  105000    1.0314679   -2.4525749   -2.4525749  -0.90537658   0.19749884   -2.4525749    1.5471983   439061 
  106000    1.0315538   -2.4508366   -2.4508366  -0.90350948   0.19206248   -2.4508366    1.5473272   439061 
  107000    1.0312979   -2.4491837   -2.4491837  -0.90224036   0.19714235   -2.4491837    1.5469434   439061 
  108000    1.0323628   -2.4498885   -2.4498885  -0.90134774   0.19842438   -2.4498885    1.5485407   439061 
  109000    1.0319578   -2.4490453   -2.4490453  -0.90111215   0.19664945   -2.4490453    1.5479332   439061 
  110000    1.0314797   -2.4480851   -2.4480851  -0.90086902   0.19613904   -2.4480851    1.5472161   439061 
  111000    1.0327465   -2.4512344   -2.4512344  -0.90211819    0.1970089   -2.4512344    1.5491162   439061 
  112000    1.0342275   -2.4548817   -2.4548817  -0.90354396   0.20095132   -2.4548817    1.5513377   439061 
  113000    1.0327303   -2.4555577   -2.4555577  -0.90646587   0.20483268   -2.4555577    1.5490919   439061 
  114000    1.0343533   -2.4612859   -2.4612859  -0.90975954   0.20473947   -2.4612859    1.5515264   439061 
  115000    1.0341613   -2.4639387   -2.4639387   -0.9127004   0.21029589   -2.4639387    1.5512383   439061 
  116000    1.0325034   -2.4665105   -2.4665105  -0.91775895   0.21743886   -2.4665105    1.5487516   439061 
  117000     1.034092    -2.474293    -2.474293  -0.92315848   0.21394219    -2.474293    1.5511345   439061 
  118000     1.034799   -2.4793838   -2.4793838  -0.92718889   0.21541851   -2.4793838    1.5521949   439061 
  119000    1.0315892   -2.4795007   -2.4795007  -0.93212033   0.22043224   -2.4795007    1.5473803   439061 
  120000    1.0325733   -2.4863907   -2.4863907  -0.93753432   0.21514041   -2.4863907    1.5488564   439061 
  121000    1.0301166   -2.4868556   -2.4868556  -0.94168429   0.21797833   -2.4868556    1.5451713   439061 
  122000     1.030688   -2.4889781   -2.4889781  -0.94294956   0.21506068   -2.4889781    1.5460285   439061 
  123000    1.0299421   -2.4892122   -2.4892122  -0.94430258   0.21743408   -2.4892122    1.5449096   439061 
  124000     1.029116   -2.4897812   -2.4897812   -0.9461107   0.21598378   -2.4897812    1.5436705   439061 
  125000    1.0278495   -2.4900557   -2.4900557  -0.94828488   0.20816414   -2.4900557    1.5417708   439061 
  126000    1.0254438   -2.4889108   -2.4889108  -0.95074866   0.21066921   -2.4889108    1.5381622   439061 
  127000    1.0236059   -2.4884387   -2.4884387  -0.95303341    0.2116757   -2.4884387    1.5354053   439061 
  128000    1.0239999   -2.4893037   -2.4893037  -0.95330735   0.20606444   -2.4893037    1.5359964   439061 
  129000    1.0228583   -2.4891093   -2.4891093  -0.95482531   0.20327942   -2.4891093     1.534284   439061 
  130000    1.0198419   -2.4871326   -2.4871326   -0.9573732    0.2004417   -2.4871326    1.5297594   439061 
  131000     1.017897   -2.4859451   -2.4859451  -0.95910308   0.19581599   -2.4859451     1.526842   439061 
  132000    1.0180364    -2.487118    -2.487118  -0.96006692   0.19299319    -2.487118     1.527051   439061 
  133000    1.0153834   -2.4831027   -2.4831027  -0.96003098   0.19632933   -2.4831027    1.5230717   439061 
  134000    1.0144204   -2.4826091   -2.4826091    -0.960982   0.18590316   -2.4826091    1.5216271   439061 
  135000    1.0158234   -2.4829078   -2.4829078  -0.95917615   0.18842312   -2.4829078    1.5237316   439061 
  136000    1.0127383   -2.4785486   -2.4785486  -0.95944457   0.19159337   -2.4785486    1.5191041   439061 
  137000    1.0133722   -2.4796596   -2.4796596   -0.9596047    0.1843045   -2.4796596    1.5200549   439061 
  138000     1.011843   -2.4762972   -2.4762972  -0.95853607   0.18647387   -2.4762972    1.5177611   439061 
  139000    1.0104174   -2.4750563   -2.4750563  -0.95943362   0.18239671   -2.4750563    1.5156226   439061 
  140000    1.0119325   -2.4770491   -2.4770491  -0.95915372   0.18508697   -2.4770491    1.5178953   439061 
  141000    1.0103983   -2.4744915   -2.4744915  -0.95889749   0.18424466   -2.4744915     1.515594   439061 
  142000    1.0112288   -2.4759014   -2.4759014  -0.95906165   0.18534047   -2.4759014    1.5168398   439061 
  143000    1.0124798   -2.4771382   -2.4771382  -0.95842191   0.18005518   -2.4771382    1.5187162   439061 
  144000     1.012496   -2.4776329   -2.4776329  -0.95889243   0.18363557   -2.4776329    1.5187405   439061 
  145000    1.0138735   -2.4799043   -2.4799043  -0.95909748   0.18045202   -2.4799043    1.5208068   439061 
  146000    1.0142817   -2.4816933   -2.4816933  -0.96027422   0.18828265   -2.4816933    1.5214191   439061 
  147000     1.013002   -2.4810413   -2.4810413  -0.96154177   0.18758579   -2.4810413    1.5194996   439061 
  148000    1.0129562   -2.4840215   -2.4840215  -0.96459067   0.19295045   -2.4840215    1.5194308   439061 
  149000    1.0143837   -2.4870717   -2.4870717  -0.96549959   0.18981083   -2.4870717    1.5215721   439061 
  150000    1.0136254   -2.4898237   -2.4898237  -0.96938902   0.19418116   -2.4898237    1.5204347   439061 
  151000    1.0121471   -2.4912506   -2.4912506  -0.97303346   0.18994812   -2.4912506    1.5182172   439061 
  152000    1.0120032    -2.493575    -2.493575  -0.97557367    0.1931392    -2.493575    1.5180013   439061 
  153000    1.0115768   -2.4947787   -2.4947787  -0.97741704   0.19339943   -2.4947787    1.5173617   439061 
  154000    1.0132589   -2.5000368   -2.5000368  -0.98015195   0.19855939   -2.5000368    1.5198849   439061 
  155000    1.0119061   -2.5011324   -2.5011324  -0.98327659   0.19799683   -2.5011324    1.5178558   439061 
  156000    1.0109736   -2.5018244   -2.5018244  -0.98536754   0.19577701   -2.5018244    1.5164569   439061 
  157000    1.0099288   -2.5026072   -2.5026072  -0.98771747   0.19226622   -2.5026072    1.5148897   439061 
  158000    1.0086614   -2.5021033   -2.5021033  -0.98911472   0.19009974   -2.5021033    1.5129886   439061 
  159000    1.0074247   -2.5006039   -2.5006039  -0.98947029   0.19516343   -2.5006039    1.5111336   439061 
  160000    1.0082233   -2.5036768   -2.5036768   -0.9913454   0.18960382   -2.5036768    1.5123314   439061 
  161000    1.0059105   -2.5011344   -2.5011344  -0.99227208   0.18832522   -2.5011344    1.5088623   439061 
  162000    1.0057864   -2.5020777   -2.5020777  -0.99340144   0.19084532   -2.5020777    1.5086762   439061 
  163000    1.0046735   -2.5011813   -2.5011813  -0.99417436   0.18536038   -2.5011813    1.5070069   439061 
  164000    1.0038334   -2.5011851   -2.5011851   -0.9954384   0.18438864   -2.5011851    1.5057467   439061 
  165000    1.0026153    -2.499909    -2.499909  -0.99598955   0.18731294    -2.499909    1.5039195   439061 
  166000    1.0031469     -2.50153     -2.50153  -0.99681306   0.18278682     -2.50153     1.504717   439061 
  167000    1.0014394   -2.4992651   -2.4992651  -0.99710947   0.18426937   -2.4992651    1.5021556   439061 
  168000    1.0015063   -2.4993591   -2.4993591  -0.99710304    0.1759761   -2.4993591     1.502256   439061 
  169000   0.99960409   -2.4974685   -2.4974685  -0.99806577   0.17565705   -2.4974685    1.4994027   439061 
  170000   0.99888334   -2.4972233   -2.4972233   -0.9989017   0.17478041   -2.4972233    1.4983216   439061 
  171000   0.99965966   -2.4990762   -2.4990762  -0.99959015   0.17603074   -2.4990762    1.4994861   439061 
  172000   0.99847333    -2.498202    -2.498202   -1.0004954   0.17406151    -2.498202    1.4977066   439061 
  173000   0.99849509   -2.4991831   -2.4991831   -1.0014439   0.17058794   -2.4991831    1.4977392   439061 
  174000   0.99870169   -2.4986731   -2.4986731   -1.0006239   0.17378267   -2.4986731    1.4980491   439061 
  175000   0.99645161   -2.4981354   -2.4981354   -1.0034614     0.174576   -2.4981354     1.494674   439061 
  176000   0.99680369   -2.4985544   -2.4985544   -1.0033523   0.17097065   -2.4985544    1.4952021   439061 
  177000   0.99835128   -2.5014065   -2.5014065    -1.003883   0.17574171   -2.5014065    1.4975235   439061 
  178000   0.99710246   -2.5004531   -2.5004531   -1.0048028   0.17337525   -2.5004531    1.4956503   439061 
  179000   0.99792624   -2.5031475   -2.5031475   -1.0062616   0.17078853   -2.5031475    1.4968859   439061 
  180000   0.99647115   -2.5031649   -2.5031649   -1.0084616   0.17866141   -2.5031649    1.4947033   439061 
  181000   0.99725281   -2.5067867   -2.5067867   -1.0109109    0.1750865   -2.5067867    1.4958758   439061 
  182000   0.99733838   -2.5072729   -2.5072729   -1.0112687   0.17518472   -2.5072729    1.4960042   439061 
  183000   0.99703739   -2.5089632   -2.5089632   -1.0134105    0.1765379   -2.5089632    1.4955527   439061 
  184000    0.9964766   -2.5098104   -2.5098104   -1.0150989   0.17887788   -2.5098104    1.4947115   439061 
  185000   0.99603254   -2.5103962   -2.5103962   -1.0163508   0.17487174   -2.5103962    1.4940454   439061 
  186000   0.99569175   -2.5115471   -2.5115471   -1.0180129   0.17800294   -2.5115471    1.4935342   439061 
  187000   0.99664184   -2.5148699   -2.5148699   -1.0199105   0.18001347   -2.5148699    1.4949594   439061 
  188000    0.9968063   -2.5150209   -2.5150209   -1.0198149   0.17775016   -2.5150209     1.495206   439061 
  189000   0.99637611   -2.5161742   -2.5161742   -1.0216134   0.17799418   -2.5161742    1.4945608   439061 
  190000   0.99694568   -2.5188233   -2.5188233   -1.0234082   0.18178649   -2.5188233    1.4954151   439061 
  191000   0.99681122   -2.5191038   -2.5191038   -1.0238904    0.1747314   -2.5191038    1.4952134   439061 
  192000   0.99554165   -2.5190807   -2.5190807   -1.0257716   0.17784891   -2.5190807    1.4933091   439061 
  193000   0.99507667   -2.5194374   -2.5194374   -1.0268258   0.17966124   -2.5194374    1.4926116   439061 
  194000   0.99405528   -2.5193241   -2.5193241   -1.0282446   0.17468349   -2.5193241    1.4910795   439061 
  195000   0.99409518   -2.5211365   -2.5211365   -1.0299971   0.17662138   -2.5211365    1.4911394   439061 
  196000   0.99366572   -2.5190429   -2.5190429   -1.0285477   0.17591773   -2.5190429    1.4904952   439061 
  197000   0.99161443   -2.5173294   -2.5173294   -1.0299111   0.17488342   -2.5173294    1.4874183   439061 
  198000   0.99142401   -2.5170159   -2.5170159   -1.0298833   0.17297732   -2.5170159    1.4871326   439061 
  199000    0.9910127   -2.5186716   -2.5186716   -1.0321559   0.16773243   -2.5186716    1.4865157   439061 
  200000   0.98929261   -2.5170138   -2.5170138   -1.0330783   0.16950568   -2.5170138    1.4839355   439061 
  201000   0.98867998   -2.5150317   -2.5150317   -1.0320151   0.17198374   -2.5150317    1.4830166   439061 
  202000   0.98847551   -2.5154653   -2.5154653   -1.0327554   0.16652624   -2.5154653    1.4827099   439061 
  203000   0.98902255   -2.5163329   -2.5163329   -1.0328024   0.16161569   -2.5163329    1.4835304   439061 
  204000   0.98812563   -2.5161388   -2.5161388   -1.0339537   0.16436588   -2.5161388    1.4821851   439061 
  205000   0.98800177   -2.5151302   -2.5151302    -1.033131   0.16770506   -2.5151302    1.4819993   439061 
  206000   0.98798277    -2.516578    -2.516578   -1.0346072   0.16483327    -2.516578    1.4819708   439061 
  207000   0.98687036   -2.5153012   -2.5153012    -1.034999   0.16168803   -2.5153012    1.4803022   439061 
  208000   0.98625464   -2.5137555   -2.5137555   -1.0343769   0.16608847   -2.5137555    1.4793786   439061 
  209000   0.98568822   -2.5132786   -2.5132786   -1.0347497   0.16628789   -2.5132786     1.478529   439061 
  210000   0.98741937    -2.516857    -2.516857   -1.0357313   0.15826535    -2.516857    1.4811257   439061 
  211000   0.98631228   -2.5169001   -2.5169001   -1.0374351   0.16001583   -2.5169001     1.479465   439061 
  212000   0.98552196   -2.5163769   -2.5163769   -1.0380974   0.16250845   -2.5163769    1.4782796   439061 
  213000   0.98539557   -2.5163251   -2.5163251   -1.0382351   0.16386081   -2.5163251      1.47809   439061 
  214000   0.98589789   -2.5184376   -2.5184376   -1.0395941   0.16887963   -2.5184376    1.4788435   439061 
  215000   0.98561496   -2.5183315   -2.5183315   -1.0399124   0.16564161   -2.5183315    1.4784191   439061 
  216000    0.9873386   -2.5214987   -2.5214987   -1.0404941   0.16498258   -2.5214987    1.4810045   439061 
  217000   0.98568695   -2.5187777   -2.5187777   -1.0402506   0.16479962   -2.5187777    1.4785271   439061 
  218000   0.98557974   -2.5200975   -2.5200975   -1.0417313   0.16557687   -2.5200975    1.4783662   439061 
  219000   0.98663538   -2.5222814   -2.5222814   -1.0423317   0.16540811   -2.5222814    1.4799497   439061 
  220000   0.98678724   -2.5236175   -2.5236175     -1.04344   0.16796257   -2.5236175    1.4801775   439061 
  221000   0.98696905    -2.525059    -2.525059   -1.0446088   0.16466673    -2.525059    1.4804502   439061 
  222000   0.98561048   -2.5248285   -2.5248285   -1.0464161    0.1721227   -2.5248285    1.4784123   439061 
  223000   0.98570939   -2.5263541   -2.5263541   -1.0477934   0.17021279   -2.5263541    1.4785607   439061 
  224000   0.98511352   -2.5268891   -2.5268891   -1.0492222   0.16412304   -2.5268891    1.4776669   439061 
  225000   0.98513769   -2.5284537   -2.5284537   -1.0507505   0.16449617   -2.5284537    1.4777032   439061 
  226000   0.98453002   -2.5293163   -2.5293163   -1.0525247   0.17319872   -2.5293163    1.4767917   439061 
  227000   0.98435941   -2.5299994   -2.5299994   -1.0534637   0.16679481   -2.5299994    1.4765358   439061 
  228000    0.9824258   -2.5282399   -2.5282399   -1.0546046   0.17229398   -2.5282399    1.4736354   439061 
  229000    0.9832421   -2.5314102   -2.5314102   -1.0565504   0.16803676   -2.5314102    1.4748598   439061 
  230000   0.98286444   -2.5324548   -2.5324548   -1.0581615   0.16191643   -2.5324548    1.4742933   439061 
  231000    0.9813546   -2.5315149   -2.5315149   -1.0594864   0.16744117   -2.5315149    1.4720285   439061 
  232000   0.98201803   -2.5322169   -2.5322169   -1.0591932   0.16396207   -2.5322169    1.4730237   439061 
  233000   0.98089624   -2.5308403   -2.5308403   -1.0594992   0.16620175   -2.5308403     1.471341   439061 
  234000   0.98048137   -2.5322285   -2.5322285   -1.0615097   0.15788315   -2.5322285    1.4707187   439061 
  235000   0.98084156   -2.5340549   -2.5340549   -1.0627959   0.16328554   -2.5340549     1.471259   439061 
  236000    0.9795483   -2.5324654   -2.5324654   -1.0631463   0.16138428   -2.5324654    1.4693191   439061 
  237000   0.97878847    -2.531849    -2.531849   -1.0636697   0.16079628    -2.531849    1.4681794   439061 
  238000   0.97879351      -2.5327      -2.5327   -1.0645131   0.15408554      -2.5327    1.4681869   439061 
  239000   0.97704395    -2.530381    -2.530381   -1.0648184   0.15659308    -2.530381    1.4655626   439061 
  240000    0.9783734     -2.53246     -2.53246   -1.0649032   0.15168537     -2.53246    1.4675568   439061 
  241000   0.97774921   -2.5309923   -2.5309923   -1.0643718   0.15370657   -2.5309923    1.4666205   439061 
  242000   0.97731482   -2.5302992   -2.5302992   -1.0643303   0.15759141   -2.5302992    1.4659689   439061 
  243000   0.97519924   -2.5283482   -2.5283482   -1.0655526   0.15791914   -2.5283482    1.4627955   439061 
  244000   0.97536428   -2.5305263   -2.5305263   -1.0674832   0.15373875   -2.5305263    1.4630431   439061 
  245000   0.97682483   -2.5331774   -2.5331774   -1.0679435   0.15079503   -2.5331774    1.4652339   439061 
  246000   0.97670964   -2.5319008   -2.5319008   -1.0668397   0.15612304   -2.5319008    1.4650611   439061 
  247000   0.97631314   -2.5333599   -2.5333599   -1.0688935    0.1546785   -2.5333599    1.4644664   439061 
  248000   0.97650939   -2.5357339   -2.5357339   -1.0709731   0.15232002   -2.5357339    1.4647607   439061 
  249000    0.9746452    -2.533513    -2.533513   -1.0715486   0.15740541    -2.533513    1.4619645   439061 
  250000   0.97605368   -2.5350601   -2.5350601   -1.0709829   0.15513476   -2.5350601    1.4640772   439061 
  251000   0.97583877   -2.5354686   -2.5354686   -1.0717138   0.15730388   -2.5354686    1.4637548   439061 
  252000   0.97532159   -2.5375761   -2.5375761    -1.074597   0.15806855   -2.5375761    1.4629791   439061 
  253000   0.97560091   -2.5393784   -2.5393784   -1.0759804   0.15500732   -2.5393784     1.463398   439061 
  254000   0.97417342   -2.5392902   -2.5392902   -1.0780334    0.1568803   -2.5392902    1.4612568   439061 
  255000   0.97434608   -2.5401263   -2.5401263   -1.0786105   0.16136023   -2.5401263    1.4615158   439061 
  256000   0.97581607   -2.5436313   -2.5436313   -1.0799106   0.15285316   -2.5436313    1.4637208   439061 
  257000   0.97455776    -2.542417    -2.542417   -1.0805837   0.15483274    -2.542417    1.4618333   439061 
  258000   0.97436638   -2.5431691   -2.5431691   -1.0816229   0.15964445   -2.5431691    1.4615462   439061 
  259000   0.97240784   -2.5406153   -2.5406153   -1.0820068   0.16137395   -2.5406153    1.4586084   439061 
  260000   0.97479368   -2.5473182   -2.5473182    -1.085131   0.15214017   -2.5473182    1.4621872   439061 
  261000   0.97477918   -2.5467775   -2.5467775   -1.0846121   0.15701882   -2.5467775    1.4621654   439061 
  262000   0.97360226   -2.5454995   -2.5454995   -1.0850994   0.15973823   -2.5454995    1.4604001   439061 
  263000   0.97297267   -2.5448416   -2.5448416   -1.0853859   0.16102312   -2.5448416    1.4594557   439061 
  264000   0.97262785   -2.5454053   -2.5454053   -1.0864669   0.16171659   -2.5454053    1.4589385   439061 
  265000   0.97254961   -2.5462566   -2.5462566   -1.0874355    0.1589948   -2.5462566    1.4588211   439061 
  266000   0.97231313   -2.5457329   -2.5457329   -1.0872665   0.15284109   -2.5457329    1.4584664   439061 
  267000   0.97323742   -2.5468866   -2.5468866   -1.0870338   0.15457836   -2.5468866    1.4598528   439061 
  268000   0.97380364   -2.5471973   -2.5471973   -1.0864952   0.15837119   -2.5471973    1.4607021   439061 
  269000   0.97045805   -2.5432998   -2.5432998   -1.0876161   0.15491612   -2.5432998    1.4556838   439061 
  270000   0.97167024   -2.5449981   -2.5449981   -1.0874961   0.15430713   -2.5449981     1.457502   439061 
  271000   0.97131288    -2.546423    -2.546423    -1.089457   0.15304638    -2.546423     1.456966   439061 
  272000   0.96980728   -2.5449052   -2.5449052   -1.0901976   0.14833934   -2.5449052    1.4547076   439061 
  273000   0.96942892   -2.5456025   -2.5456025   -1.0914625   0.14977875   -2.5456025    1.4541401   439061 
  274000   0.96923269   -2.5462298   -2.5462298   -1.0923841   0.14930476   -2.5462298    1.4538457   439061 
  275000   0.96869767   -2.5453092   -2.5453092    -1.092266    0.1482406   -2.5453092    1.4530432   439061 
  276000   0.96870142   -2.5460376   -2.5460376   -1.0929888   0.14484664   -2.5460376    1.4530488   439061 
  277000   0.96858177   -2.5458347   -2.5458347   -1.0929654     0.150804   -2.5458347    1.4528693   439061 
  278000   0.96820501   -2.5468241   -2.5468241   -1.0945199   0.14745958   -2.5468241    1.4523042   439061 
  279000   0.96770672   -2.5469479   -2.5469479   -1.0953911   0.14504402   -2.5469479    1.4515568   439061 
  280000   0.96766259    -2.547374    -2.547374   -1.0958835   0.15137035    -2.547374    1.4514906   439061 
  281000   0.96817335   -2.5485379   -2.5485379   -1.0962812   0.15076036   -2.5485379    1.4522567   439061 
  282000   0.96751615   -2.5478853   -2.5478853   -1.0966143    0.1476477   -2.5478853    1.4512709   439061 
  283000   0.96757747    -2.549559    -2.549559   -1.0981961     0.143023    -2.549559    1.4513629   439061 
  284000   0.96586458   -2.5470604   -2.5470604   -1.0982668   0.14923003   -2.5470604    1.4487936   439061 
  285000   0.96811047   -2.5506349   -2.5506349   -1.0984725   0.14677679   -2.5506349    1.4521624   439061 
  286000   0.96712624   -2.5496302   -2.5496302   -1.0989441   0.14981021   -2.5496302    1.4506861   439061 
  287000   0.96716963   -2.5491003   -2.5491003   -1.0983492   0.15162105   -2.5491003    1.4507511   439061 
  288000   0.96598721    -2.549035    -2.549035   -1.1000575   0.14906396    -2.549035    1.4489775   439061 
  289000   0.96669228   -2.5507122   -2.5507122   -1.1006771    0.1510422   -2.5507122    1.4500351   439061 
  290000   0.96769081   -2.5525583   -2.5525583   -1.1010254    0.1489587   -2.5525583    1.4515329   439061 
  291000   0.96684694   -2.5518783   -2.5518783   -1.1016112   0.14695504   -2.5518783    1.4502671   439061 
  292000   0.96705555    -2.553425    -2.553425    -1.102845   0.14720256    -2.553425      1.45058   439061 
  293000   0.96664743   -2.5542054   -2.5542054   -1.1042376   0.14736411   -2.5542054    1.4499678   439061 
  294000   0.96635827    -2.554493    -2.554493   -1.1049589   0.15077457    -2.554493    1.4495341   439061 
  295000    0.9672496   -2.5553789   -2.5553789   -1.1045078   0.14911988   -2.5553789    1.4508711   439061 
  296000    0.9675933   -2.5576105   -2.5576105   -1.1062239    0.1506851   -2.5576105    1.4513866   439061 
  297000    0.9663585   -2.5577116   -2.5577116   -1.1081772   0.14751679   -2.5577116    1.4495344   439061 
  298000   0.96596934   -2.5575802   -2.5575802   -1.1086295   0.15097453   -2.5575802    1.4489507   439061 
  299000   0.96533652   -2.5575344   -2.5575344   -1.1095329   0.14963867   -2.5575344    1.4480015   439061 
  300000   0.96369161   -2.5560332   -2.5560332   -1.1104991   0.15157114   -2.5560332    1.4455341   439061 
  301000   0.96358411   -2.5572712   -2.5572712   -1.1118984   0.14361188   -2.5572712    1.4453729   439061 
  302000   0.96370358   -2.5571329   -2.5571329   -1.1115808   0.14401779   -2.5571329    1.4455521   439061 
  303000   0.96289747   -2.5560201   -2.5560201   -1.1116772   0.14690054   -2.5560201    1.4443429   439061 
  304000   0.96321274   -2.5562369   -2.5562369   -1.1114211    0.1445472   -2.5562369    1.4448158   439061 
  305000   0.96461355   -2.5575988   -2.5575988   -1.1106818   0.14377298   -2.5575988     1.446917   439061 
  306000   0.96190045   -2.5541753   -2.5541753   -1.1113279   0.14973346   -2.5541753    1.4428474   439061 
  307000   0.96305046   -2.5573932   -2.5573932   -1.1128208   0.14397949   -2.5573932    1.4445724   439061 
  308000   0.96212712   -2.5562111   -2.5562111   -1.1130237   0.13968552   -2.5562111    1.4431874   439061 
  309000   0.96215894   -2.5561018   -2.5561018   -1.1128666   0.14336241   -2.5561018    1.4432351   439061 
  310000   0.96084894   -2.5551111   -2.5551111   -1.1138409   0.14668043   -2.5551111    1.4412701   439061 
  311000   0.96116789   -2.5589473   -2.5589473   -1.1171987   0.14375571   -2.5589473    1.4417486   439061 
  312000   0.95977925   -2.5569891   -2.5569891   -1.1173236   0.14498342   -2.5569891    1.4396656   439061 
  313000   0.95926251    -2.556891    -2.556891   -1.1180006   0.14072231    -2.556891    1.4388905   439061 
  314000   0.96172497   -2.5610077   -2.5610077   -1.1184235   0.13831376   -2.5610077    1.4425842   439061 
  315000    0.9605467   -2.5594702   -2.5594702   -1.1186535   0.14802543   -2.5594702    1.4408168   439061 
  316000   0.96115685   -2.5611011   -2.5611011   -1.1193691   0.14298442   -2.5611011     1.441732   439061 
  317000   0.96051342   -2.5611448   -2.5611448    -1.120378   0.14610985   -2.5611448    1.4407669   439061 
  318000   0.96057061   -2.5630072   -2.5630072   -1.1221546    0.1412267   -2.5630072    1.4408526   439061 
  319000   0.96061257   -2.5626494   -2.5626494   -1.1217338   0.14405056   -2.5626494    1.4409156   439061 
  320000   0.96047691   -2.5628366   -2.5628366   -1.1221245    0.1429606   -2.5628366    1.4407121   439061 
  321000    0.9610971   -2.5629446   -2.5629446   -1.1213022   0.14658011   -2.5629446    1.4416424   439061 
  322000   0.95973489   -2.5626794   -2.5626794   -1.1230804    0.1437225   -2.5626794    1.4395991   439061 
  323000   0.96123424    -2.564731    -2.564731   -1.1228829   0.14312216    -2.564731    1.4418481   439061 
  324000   0.95972696   -2.5629746   -2.5629746   -1.1233875    0.1410289   -2.5629746    1.4395872   439061 
  325000   0.96070299   -2.5640736   -2.5640736   -1.1230224   0.14570926   -2.5640736    1.4410512   439061 
  326000   0.96014128    -2.564624    -2.564624   -1.1244153   0.13935284    -2.564624    1.4402086   439061 
  327000   0.96045935   -2.5668005   -2.5668005   -1.1261148   0.14268052   -2.5668005    1.4406857   439061 
  328000    0.9597871   -2.5646102   -2.5646102   -1.1249328   0.14134625   -2.5646102    1.4396774   439061 
  329000   0.95809756   -2.5640216   -2.5640216   -1.1268785   0.14121401   -2.5640216    1.4371431   439061 
  330000   0.95854604   -2.5648585   -2.5648585   -1.1270427   0.14303316   -2.5648585    1.4378158   439061 
  331000   0.95774639   -2.5642626   -2.5642626   -1.1276463   0.14024111   -2.5642626    1.4366163   439061 
  332000   0.95787043   -2.5653191   -2.5653191   -1.1285167   0.14248198   -2.5653191    1.4368024   439061 
  333000   0.95992285   -2.5686748   -2.5686748   -1.1287938    0.1344855   -2.5686748     1.439881   439061 
  334000   0.95674011   -2.5655438   -2.5655438   -1.1304369   0.14071602   -2.5655438    1.4351069   439061 
  335000   0.95908771   -2.5694023   -2.5694023    -1.130774   0.14065159   -2.5694023    1.4386283   439061 
  336000   0.95733325    -2.566805    -2.566805   -1.1308084   0.13687498    -2.566805    1.4359966   439061 
  337000   0.95639845    -2.567073    -2.567073   -1.1324786   0.14035396    -2.567073    1.4345944   439061 
  338000   0.95613237   -2.5677109   -2.5677109   -1.1335157   0.14022195   -2.5677109    1.4341953   439061 
  339000   0.95599023   -2.5684613   -2.5684613   -1.1344792   0.13940026   -2.5684613    1.4339821   439061 
  340000   0.95676245   -2.5693196   -2.5693196   -1.1341792   0.13849473   -2.5693196    1.4351404   439061 
  341000   0.95604419   -2.5695263   -2.5695263   -1.1354633   0.14145168   -2.5695263     1.434063   439061 
  342000   0.95400503   -2.5664641   -2.5664641   -1.1354599   0.13986608   -2.5664641    1.4310043   439061 
  343000   0.95412957   -2.5686794   -2.5686794   -1.1374883   0.14124731   -2.5686794    1.4311911   439061 
  344000   0.95396024   -2.5686474   -2.5686474   -1.1377103   0.13808197   -2.5686474    1.4309371   439061 
  345000   0.95352268    -2.569378    -2.569378   -1.1390972   0.14032419    -2.569378    1.4302808   439061 
  346000   0.95425081   -2.5703806   -2.5703806   -1.1390076   0.13215112   -2.5703806    1.4313729   439061 
  347000   0.95320857   -2.5681094   -2.5681094   -1.1382999   0.13712393   -2.5681094    1.4298096   439061 
  348000   0.95592534   -2.5707798   -2.5707798    -1.136895   0.13642543   -2.5707798    1.4338847   439061 
  349000    0.9549199   -2.5695964   -2.5695964   -1.1372198   0.13548142   -2.5695964    1.4323766   439061 
  350000   0.95503159   -2.5701793   -2.5701793   -1.1376352   0.13684663   -2.5701793    1.4325441   439061 
  351000   0.95458147   -2.5712901   -2.5712901   -1.1394211   0.13395469   -2.5712901    1.4318689   439061 
  352000   0.95435773   -2.5724074   -2.5724074   -1.1408741   0.13627083   -2.5724074    1.4315333   439061 
  353000   0.95342178   -2.5719155   -2.5719155   -1.1417861   0.13684481   -2.5719155    1.4301294   439061 
  354000   0.95383453    -2.572772    -2.572772   -1.1420235   0.13489335    -2.572772    1.4307485   439061 
  355000   0.95381107   -2.5730003   -2.5730003    -1.142287   0.14092915   -2.5730003    1.4307134   439061 
  356000   0.95310689   -2.5717561   -2.5717561    -1.142099   0.13811933   -2.5717561    1.4296571   439061 
  357000   0.95415663   -2.5739576   -2.5739576   -1.1427259   0.13263301   -2.5739576    1.4312317   439061 
  358000    0.9550209   -2.5751259   -2.5751259   -1.1425978   0.13888183   -2.5751259    1.4325281   439061 
  359000    0.9528914   -2.5741937   -2.5741937   -1.1448599   0.13777965   -2.5741937    1.4293338   439061 
  360000   0.95233508    -2.575925    -2.575925   -1.1474257   0.13477687    -2.575925    1.4284994   439061 
  361000   0.95356763   -2.5767152   -2.5767152    -1.146367   0.13710853   -2.5767152    1.4303482   439061 
  362000   0.95192636   -2.5752885   -2.5752885   -1.1474022   0.13492873   -2.5752885    1.4278863   439061 
  363000   0.95088034   -2.5750866   -2.5750866   -1.1487694   0.13834341   -2.5750866    1.4263173   439061 
  364000   0.95109766   -2.5763317   -2.5763317   -1.1496884   0.13227375   -2.5763317    1.4266432   439061 
  365000   0.95174534   -2.5769311   -2.5769311   -1.1493164   0.13700612   -2.5769311    1.4276148   439061 
  366000   0.95111203   -2.5759228   -2.5759228    -1.149258   0.13512124   -2.5759228    1.4266648   439061 
  367000   0.95197853     -2.57795     -2.57795   -1.1499855   0.13418405     -2.57795    1.4279645   439061 
  368000   0.95183397   -2.5766809   -2.5766809   -1.1489332   0.13504962   -2.5766809    1.4277477   439061 
  369000   0.95139479   -2.5764695   -2.5764695   -1.1493806   0.13678205   -2.5764695    1.4270889   439061 
  370000   0.95094669   -2.5763708   -2.5763708    -1.149954   0.13986602   -2.5763708    1.4264168   439061 
  371000   0.95042752    -2.575666    -2.575666    -1.150028   0.13641905    -2.575666     1.425638   439061 
  372000   0.95195755   -2.5785368   -2.5785368   -1.1506037   0.13731406   -2.5785368    1.4279331   439061 
  373000    0.9510577   -2.5768438   -2.5768438   -1.1502605   0.13859045   -2.5768438    1.4265833   439061 
  374000   0.95095698   -2.5783084   -2.5783084   -1.1518761   0.13300617   -2.5783084    1.4264322   439061 
  375000   0.94992829   -2.5771611   -2.5771611   -1.1522719   0.13158116   -2.5771611    1.4248892   439061 
  376000   0.94846003   -2.5765813   -2.5765813   -1.1538944   0.13688721   -2.5765813    1.4226868   439061 
  377000   0.94850945   -2.5766878   -2.5766878   -1.1539268   0.13562889   -2.5766878    1.4227609   439061 
  378000   0.94889031   -2.5776928   -2.5776928   -1.1543606   0.12843237   -2.5776928    1.4233322   439061 
  379000   0.94998747   -2.5785261   -2.5785261   -1.1535481   0.13095062   -2.5785261     1.424978   439061 
  380000   0.94754835   -2.5762086   -2.5762086   -1.1548893   0.13232461   -2.5762086    1.4213193   439061 
  381000   0.94877251   -2.5772034   -2.5772034   -1.1540479   0.13291867   -2.5772034    1.4231555   439061 
  382000   0.94887961   -2.5787504   -2.5787504   -1.1554342   0.13225921   -2.5787504    1.4233162   439061 
  383000   0.94764807   -2.5782107   -2.5782107   -1.1567419   0.13277261   -2.5782107    1.4214689   439061 
  384000   0.94835896   -2.5805149   -2.5805149   -1.1579797   0.13297854   -2.5805149    1.4225352   439061 
  385000   0.94779003   -2.5812595   -2.5812595   -1.1595777   0.13036794   -2.5812595    1.4216818   439061 
  386000   0.94836976   -2.5820379   -2.5820379   -1.1594865   0.12478253   -2.5820379    1.4225514   439061 
  387000   0.94686495   -2.5802466   -2.5802466   -1.1599524    0.1333144   -2.5802466    1.4202942   439061 
  388000   0.94802994   -2.5812217   -2.5812217     -1.15918    0.1368789   -2.5812217    1.4220417   439061 
  389000   0.94776441   -2.5823463   -2.5823463   -1.1607029   0.13008968   -2.5823463    1.4216434   439061 
  390000   0.94806301    -2.582591    -2.582591   -1.1604998   0.13181724    -2.582591    1.4220913   439061 
  391000   0.94775706   -2.5831013   -2.5831013    -1.161469   0.12849913   -2.5831013    1.4216324   439061 
  392000   0.94714377   -2.5830273   -2.5830273   -1.1623149   0.13077318   -2.5830273    1.4207124   439061 
  393000   0.94680145   -2.5824531   -2.5824531   -1.1622542   0.13329526   -2.5824531    1.4201989   439061 
  394000    0.9493637   -2.5875804   -2.5875804   -1.1635381    0.1315794   -2.5875804    1.4240423   439061 
  395000    0.9481148   -2.5852436   -2.5852436   -1.1630747   0.13487293   -2.5852436     1.422169   439061 
  396000   0.94702641   -2.5847502   -2.5847502   -1.1642138   0.13011215   -2.5847502    1.4205364   439061 
  397000   0.94772522   -2.5863736   -2.5863736    -1.164789   0.13314969   -2.5863736    1.4215846   439061 
  398000   0.94765972   -2.5866129   -2.5866129   -1.1651266   0.12932069   -2.5866129    1.4214863   439061 
  399000   0.94633598   -2.5859324   -2.5859324   -1.1664316   0.13182021   -2.5859324    1.4195007   439061 
  400000     0.946445   -2.5862522   -2.5862522   -1.1665879   0.13311082   -2.5862522    1.4196643   439061 
  401000   0.94615554   -2.5858417   -2.5858417   -1.1666117   0.12811746   -2.5858417    1.4192301   439061 
  402000   0.94497846   -2.5855157   -2.5855157   -1.1680512   0.13036681   -2.5855157    1.4174645   439061 
  403000   0.94566796   -2.5870953   -2.5870953   -1.1685966   0.12836511   -2.5870953    1.4184987   439061 
  404000   0.94636719   -2.5859077   -2.5859077   -1.1663601   0.13465443   -2.5859077    1.4195476   439061 
  405000   0.94593204   -2.5845585   -2.5845585   -1.1656636   0.12928346   -2.5845585    1.4188948   439061 
  406000   0.94526815   -2.5846704   -2.5846704   -1.1667714   0.13112109   -2.5846704     1.417899   439061 
  407000   0.94496948    -2.586555    -2.586555    -1.169104   0.13130887    -2.586555     1.417451   439061 
  408000   0.94551158   -2.5868614   -2.5868614   -1.1685973   0.12877536   -2.5868614    1.4182641   439061 
  409000   0.94466442   -2.5856121   -2.5856121   -1.1686187   0.13095394   -2.5856121    1.4169934   439061 
  410000   0.94454876   -2.5864491   -2.5864491   -1.1696292   0.12817275   -2.5864491    1.4168199   439061 
  411000   0.94531638   -2.5870373   -2.5870373   -1.1690659   0.12695863   -2.5870373    1.4179713   439061 
  412000   0.94410794   -2.5862442   -2.5862442   -1.1700855   0.12770931   -2.5862442    1.4161587   439061 
  413000   0.94382481   -2.5863538   -2.5863538   -1.1706198   0.12822516   -2.5863538     1.415734   439061 
  414000   0.94528632   -2.5879295   -2.5879295   -1.1700033   0.13077783   -2.5879295    1.4179263   439061 
  415000   0.94341027   -2.5855069   -2.5855069   -1.1703947   0.12688206   -2.5855069    1.4151122   439061 
  416000   0.94329022   -2.5868779   -2.5868779   -1.1719458   0.13148545   -2.5868779    1.4149321   439061 
  417000   0.94351632   -2.5874095   -2.5874095   -1.1721383   0.12649696   -2.5874095    1.4152713   439061 
  418000   0.94267446   -2.5871075   -2.5871075    -1.173099   0.12814649   -2.5871075    1.4140085   439061 
  419000   0.94351655   -2.5882848   -2.5882848   -1.1730132   0.12522946   -2.5882848    1.4152716   439061 
  420000    0.9416158   -2.5868484   -2.5868484   -1.1744279   0.12469933   -2.5868484    1.4124205   439061 
  421000   0.94232236   -2.5874201   -2.5874201   -1.1739398   0.12609755   -2.5874201    1.4134803   439061 
  422000    0.9425687   -2.5878431   -2.5878431   -1.1739932   0.12681193   -2.5878431    1.4138498   439061 
  423000   0.94303495    -2.588632    -2.588632   -1.1740828   0.12594555    -2.588632    1.4145492   439061 
  424000   0.94254793   -2.5883597   -2.5883597   -1.1745411    0.1276174   -2.5883597    1.4138187   439061 
  425000   0.94303822   -2.5889406   -2.5889406   -1.1743865   0.12195746   -2.5889406    1.4145541   439061 
  426000   0.94376791   -2.5908276   -2.5908276    -1.175179   0.12726404   -2.5908276    1.4156486   439061 
  427000   0.94201287   -2.5895441   -2.5895441    -1.176528   0.12673083   -2.5895441    1.4130161   439061 
  428000    0.9423729   -2.5896824   -2.5896824   -1.1761263   0.12709145   -2.5896824    1.4135561   439061 
  429000   0.94191739   -2.5895589   -2.5895589    -1.176686   0.12921802   -2.5895589    1.4128729   439061 
  430000   0.94184179   -2.5894659   -2.5894659   -1.1767064   0.12869202   -2.5894659    1.4127595   439061 
  431000   0.94191329   -2.5905685   -2.5905685   -1.1777018   0.12421531   -2.5905685    1.4128667   439061 
  432000   0.94336415   -2.5943818   -2.5943818   -1.1793388   0.12503679   -2.5943818     1.415043   439061 
  433000   0.94242997   -2.5934745   -2.5934745   -1.1798327   0.12711823   -2.5934745    1.4136417   439061 
  434000   0.93993506   -2.5916788   -2.5916788   -1.1817794   0.12408008   -2.5916788    1.4098994   439061 
  435000    0.9419218    -2.594393    -2.594393   -1.1815136   0.12118203    -2.594393    1.4128795   439061 
  436000    0.9413022   -2.5931457   -2.5931457   -1.1811956   0.12939832   -2.5931457    1.4119501   439061 
  437000   0.94077137   -2.5930803   -2.5930803   -1.1819265   0.12493899   -2.5930803    1.4111538   439061 
  438000   0.94199282   -2.5957965   -2.5957965   -1.1828105   0.12586851   -2.5957965     1.412986   439061 
  439000    0.9415134   -2.5950673   -2.5950673   -1.1828004   0.12821234   -2.5950673    1.4122669   439061 
  440000   0.94240694   -2.5969471   -2.5969471   -1.1833399   0.12349633   -2.5969471    1.4136072   439061 
  441000   0.93996296   -2.5937492   -2.5937492   -1.1838079   0.12833466   -2.5937492    1.4099412   439061 
  442000   0.94166322   -2.5963378   -2.5963378   -1.1838462   0.12608352   -2.5963378    1.4124916   439061 
  443000   0.93976533   -2.5935172   -2.5935172   -1.1838725   0.12484435   -2.5935172    1.4096448   439061 
  444000    0.9399329   -2.5957897   -2.5957897   -1.1858935   0.12445261   -2.5957897    1.4098961   439061 
  445000   0.94001625   -2.5953813   -2.5953813   -1.1853601   0.12282083   -2.5953813    1.4100212   439061 
  446000   0.94027225   -2.5966045   -2.5966045   -1.1861993   0.12131338   -2.5966045    1.4104052   439061 
  447000   0.94122167   -2.5976226   -2.5976226   -1.1857933   0.12279697   -2.5976226    1.4118293   439061 
  448000   0.93847437   -2.5951763   -2.5951763   -1.1874679   0.12101075   -2.5951763    1.4077084   439061 
  449000   0.93962662   -2.5969279   -2.5969279   -1.1874912   0.12114199   -2.5969279    1.4094367   439061 
  450000   0.93817613   -2.5955983   -2.5955983   -1.1883373   0.12309273   -2.5955983     1.407261   439061 
  451000   0.93805112    -2.594681    -2.594681   -1.1876075   0.12039043    -2.594681    1.4070735   439061 
  452000   0.93811377   -2.5964903   -2.5964903   -1.1893228    0.1189653   -2.5964903    1.4071675   439061 
  453000   0.93840541    -2.597239    -2.597239    -1.189634   0.11672599    -2.597239    1.4076049   439061 
  454000   0.93878399   -2.5968491   -2.5968491   -1.1886763   0.12005173   -2.5968491    1.4081728   439061 
  455000   0.93805493   -2.5959992   -2.5959992     -1.18892   0.11786265   -2.5959992    1.4070792   439061 
  456000    0.9376122   -2.5964088   -2.5964088   -1.1899937   0.11836831   -2.5964088    1.4064151   439061 
  457000   0.93916983   -2.5971195   -2.5971195   -1.1883679   0.12500717   -2.5971195    1.4087515   439061 
  458000   0.93827427    -2.595815    -2.595815   -1.1884068   0.12437636    -2.595815    1.4074082   439061 
  459000   0.93931785    -2.597246    -2.597246   -1.1882725   0.12363607    -2.597246    1.4089736   439061 
  460000   0.93984036   -2.5982372   -2.5982372   -1.1884799   0.12550705   -2.5982372    1.4097573   439061 
  461000   0.93970918   -2.5979641   -2.5979641   -1.1884035   0.12718344   -2.5979641    1.4095606   439061 
  462000   0.93781571   -2.5968329   -2.5968329   -1.1901125   0.12570831   -2.5968329    1.4067204   439061 
  463000   0.93924879   -2.5994183   -2.5994183   -1.1905484   0.12543153   -2.5994183      1.40887   439061 
  464000   0.93664125   -2.5985644   -2.5985644   -1.1936057   0.11744642   -2.5985644    1.4049587   439061 
  465000   0.93689381   -2.6000742   -2.6000742   -1.1947366   0.12265067   -2.6000742    1.4053375   439061 
  466000   0.93676633   -2.6008494   -2.6008494   -1.1957031   0.11489017   -2.6008494    1.4051463   439061 
  467000   0.93513522   -2.5985498   -2.5985498   -1.1958502    0.1221235   -2.5985498    1.4026996   439061 
  468000   0.93537893   -2.5994429   -2.5994429   -1.1963777   0.12310469   -2.5994429    1.4030652   439061 
  469000   0.93493552   -2.5986707   -2.5986707   -1.1962706   0.12183629   -2.5986707    1.4024001   439061 
  470000   0.93771476   -2.6025283   -2.6025283   -1.1959594   0.12235119   -2.6025283    1.4065689   439061 
  471000   0.93512303   -2.6007649   -2.6007649   -1.1980836   0.12102732   -2.6007649    1.4026814   439061 
  472000   0.93472242   -2.6008195   -2.6008195    -1.198739   0.12286614   -2.6008195    1.4020804   439061 
  473000    0.9353001   -2.6020507   -2.6020507   -1.1991037   0.12178939   -2.6020507     1.402947   439061 
  474000   0.93519473   -2.6019188   -2.6019188   -1.1991299   0.12068517   -2.6019188    1.4027889   439061 
  475000   0.93455788   -2.6011446   -2.6011446    -1.199311   0.12281282   -2.6011446    1.4018336   439061 
  476000   0.93542999   -2.6025181   -2.6025181   -1.1993763   0.12338197   -2.6025181    1.4031418   439061 
  477000    0.9350642   -2.6023188   -2.6023188   -1.1997256   0.12223376   -2.6023188    1.4025931   439061 
  478000    0.9348936   -2.6035938   -2.6035938   -1.2012565   0.12155795   -2.6035938    1.4023372   439061 
  479000   0.93454405    -2.604485    -2.604485   -1.2026721   0.11623078    -2.604485    1.4018129   439061 
  480000   0.93540071   -2.6067103   -2.6067103   -1.2036125   0.11935652   -2.6067103    1.4030979   439061 
  481000   0.93585418     -2.60767     -2.60767   -1.2038919   0.12301933     -2.60767    1.4037781   439061 
  482000   0.93384116   -2.6058956   -2.6058956    -1.205137   0.11841274   -2.6058956    1.4007585   439061 
  483000   0.93607472   -2.6092204   -2.6092204   -1.2051115   0.11696633   -2.6092204    1.4041089   439061 
  484000   0.93500386   -2.6084303   -2.6084303   -1.2059277   0.11567718   -2.6084303    1.4025026   439061 
  485000   0.93508175   -2.6092977   -2.6092977   -1.2066782   0.12124677   -2.6092977    1.4026194   439061 
  486000   0.93393283   -2.6076306   -2.6076306   -1.2067345   0.11886642   -2.6076306    1.4008961   439061 
  487000   0.93516448    -2.609449    -2.609449   -1.2067055   0.12397796    -2.609449    1.4027435   439061 
  488000   0.93634562   -2.6113194   -2.6113194   -1.2068042   0.11600171   -2.6113194    1.4045152   439061 
  489000   0.93489595   -2.6101323   -2.6101323   -1.2077916   0.11997739   -2.6101323    1.4023407   439061 
  490000   0.93348512   -2.6090533   -2.6090533   -1.2088288   0.11896397   -2.6090533    1.4002245   439061 
  491000   0.93372905   -2.6103039   -2.6103039   -1.2097135   0.11937413   -2.6103039    1.4005904   439061 
  492000   0.93299685    -2.610123    -2.610123   -1.2106309   0.11712234    -2.610123    1.3994921   439061 
  493000    0.9338325   -2.6112178   -2.6112178   -1.2104722   0.12456264   -2.6112178    1.4007456   439061 
  494000   0.93266679   -2.6098182   -2.6098182   -1.2108212    0.1188823   -2.6098182     1.398997   439061 
  495000   0.93411988   -2.6117616   -2.6117616    -1.210585    0.1197398   -2.6117616    1.4011766   439061 
  496000   0.93332025   -2.6114511   -2.6114511    -1.211474   0.11864613   -2.6114511    1.3999772   439061 
  497000   0.93367716   -2.6134447   -2.6134447   -1.2129321    0.1166643   -2.6134447    1.4005125   439061 
  498000   0.93224473   -2.6107554   -2.6107554   -1.2123915    0.1210758   -2.6107554    1.3983639   439061 
  499000   0.93149743   -2.6091337   -2.6091337   -1.2118907   0.12157978   -2.6091337     1.397243   439061 
  500000   0.93172358   -2.6093555   -2.6093555   -1.2117733   0.11286578   -2.6093555    1.3975822   439061 
  501000   0.93280406   -2.6104346   -2.6104346   -1.2112317   0.11363048   -2.6104346    1.3992029   439061 
  502000   0.93464176   -2.6115811   -2.6115811   -1.2096216   0.11681846   -2.6115811    1.4019594   439061 
  503000   0.93412822   -2.6099691   -2.6099691     -1.20878   0.12070027   -2.6099691    1.4011891   439061 
  504000   0.93188657   -2.6099327   -2.6099327   -1.2121061   0.11288741   -2.6099327    1.3978267   439061 
  505000   0.93275639   -2.6104364   -2.6104364    -1.211305   0.12029229   -2.6104364    1.3991314   439061 
  506000   0.93315829   -2.6107765   -2.6107765   -1.2110422   0.11427176   -2.6107765    1.3997342   439061 
  507000   0.93126131   -2.6084918   -2.6084918    -1.211603   0.11296984   -2.6084918    1.3968888   439061 
  508000   0.93117104   -2.6095962   -2.6095962   -1.2128428   0.11390578   -2.6095962    1.3967534   439061 
  509000   0.93261983    -2.611393    -2.611393   -1.2124664    0.1128177    -2.611393    1.3989266   439061 
  510000   0.93211799   -2.6115382   -2.6115382   -1.2133644   0.11696711   -2.6115382    1.3981738   439061 
  511000   0.93339883    -2.613564    -2.613564    -1.213469   0.11562041    -2.613564    1.4000951   439061 
  512000    0.9322684   -2.6124328   -2.6124328   -1.2140334   0.11869466   -2.6124328    1.3983994   439061 
  513000   0.93140743   -2.6131485   -2.6131485   -1.2160405   0.11913617   -2.6131485     1.397108   439061 
  514000   0.93202487   -2.6148724   -2.6148724   -1.2168383   0.11402384   -2.6148724    1.3980341   439061 
  515000   0.93187365   -2.6155401   -2.6155401   -1.2177328    0.1192433   -2.6155401    1.3978073   439061 
  516000   0.93217759   -2.6171573   -2.6171573   -1.2188941   0.11447378   -2.6171573    1.3982632   439061 
  517000     0.930162   -2.6130781   -2.6130781   -1.2178383   0.11931296   -2.6130781    1.3952398   439061 
  518000   0.93112182   -2.6147523   -2.6147523   -1.2180728   0.11973063   -2.6147523    1.3966795   439061 
  519000    0.9304028   -2.6143605   -2.6143605   -1.2187595   0.11394434   -2.6143605     1.395601   439061 
  520000   0.93108046   -2.6162647   -2.6162647   -1.2196472   0.11511399   -2.6162647    1.3966175   439061 
  521000   0.92959048   -2.6143908   -2.6143908   -1.2200083   0.11789878   -2.6143908    1.3943825   439061 
  522000   0.92961412   -2.6140375   -2.6140375   -1.2196195   0.11670452   -2.6140375     1.394418   439061 
  523000   0.93059623   -2.6155101   -2.6155101   -1.2196189   0.11421083   -2.6155101    1.3958912   439061 
  524000   0.92965255   -2.6145499   -2.6145499   -1.2200743   0.11824699   -2.6145499    1.3944757   439061 
  525000   0.92988069   -2.6161282   -2.6161282   -1.2213103    0.1135129   -2.6161282    1.3948179   439061 
  526000   0.93047848   -2.6168546   -2.6168546     -1.22114   0.11366709   -2.6168546    1.3957145   439061 
  527000   0.93133112   -2.6184351   -2.6184351   -1.2214416   0.11679572   -2.6184351    1.3969935   439061 
  528000    0.9298506   -2.6158996   -2.6158996   -1.2211269   0.11561829   -2.6158996    1.3947727   439061 
  529000   0.92766108   -2.6140784   -2.6140784     -1.22259   0.11862362   -2.6140784    1.3914885   439061 
  530000   0.92984228   -2.6166418   -2.6166418   -1.2218815   0.11457615   -2.6166418    1.3947602   439061 
  531000   0.92950425   -2.6166891   -2.6166891   -1.2224359   0.11406968   -2.6166891    1.3942532   439061 
  532000   0.93047453     -2.61963     -2.61963   -1.2239214   0.11757058     -2.61963    1.3957086   439061 
  533000   0.92872241   -2.6167715   -2.6167715    -1.223691   0.11588675   -2.6167715    1.3930804   439061 
  534000   0.93034305    -2.620292    -2.620292   -1.2247806   0.11049822    -2.620292    1.3955114   439061 
  535000   0.92856269   -2.6189241   -2.6189241   -1.2260833   0.11154576   -2.6189241    1.3928409   439061 
  536000   0.92860989    -2.618693    -2.618693   -1.2257813   0.11149815    -2.618693    1.3929117   439061 
  537000   0.92801157     -2.61695     -2.61695   -1.2249358   0.11507635     -2.61695    1.3920142   439061 
  538000   0.92981076   -2.6199942   -2.6199942   -1.2252812   0.11314575   -2.6199942     1.394713   439061 
  539000   0.92953167   -2.6202596   -2.6202596   -1.2259653    0.1145448   -2.6202596    1.3942943   439061 
  540000   0.92859065    -2.620502    -2.620502   -1.2276192   0.11270572    -2.620502    1.3928828   439061 
  541000   0.92783046   -2.6196802   -2.6196802   -1.2279377   0.11400098   -2.6196802    1.3917425   439061 
  542000   0.92648679   -2.6197955   -2.6197955   -1.2300684   0.11226113   -2.6197955     1.389727   439061 
  543000   0.92659295   -2.6206759   -2.6206759   -1.2307897   0.10751961   -2.6206759    1.3898863   439061 
  544000   0.92818381   -2.6222208   -2.6222208   -1.2299482   0.11092571   -2.6222208    1.3922725   439061 
  545000   0.92811578   -2.6225749   -2.6225749   -1.2304044    0.1097825   -2.6225749    1.3921705   439061 
  546000   0.92719592   -2.6220138   -2.6220138   -1.2312231   0.11221153   -2.6220138    1.3907907   439061 
  547000   0.92642871   -2.6231075   -2.6231075   -1.2334676   0.10780169   -2.6231075    1.3896399   439061 
  548000   0.92799836   -2.6253015   -2.6253015   -1.2333071   0.10876155   -2.6253015    1.3919944   439061 
  549000    0.9278179   -2.6236063   -2.6236063   -1.2318826   0.10929377   -2.6236063    1.3917237   439061 
  550000   0.92882396   -2.6258788   -2.6258788   -1.2326461   0.10668185   -2.6258788    1.3932328   439061 
  551000   0.92875573   -2.6249135   -2.6249135    -1.231783   0.11406941   -2.6249135    1.3931304   439061 
  552000   0.92718832   -2.6230574   -2.6230574   -1.2322781   0.11086392   -2.6230574    1.3907793   439061 
  553000   0.92713117   -2.6234214   -2.6234214   -1.2327278   0.11300185   -2.6234214    1.3906936   439061 
  554000   0.92687479   -2.6239099   -2.6239099   -1.2336009   0.11208517   -2.6239099     1.390309   439061 
  555000   0.92796956   -2.6243485   -2.6243485   -1.2323974   0.11573404   -2.6243485    1.3919512   439061 
  556000   0.92821519   -2.6247891   -2.6247891   -1.2324695   0.11183642   -2.6247891    1.3923196   439061 
  557000   0.92754089   -2.6238018   -2.6238018   -1.2324936   0.11800669   -2.6238018    1.3913082   439061 
  558000   0.92644321    -2.622362    -2.622362   -1.2327004   0.11201864    -2.622362    1.3896616   439061 
  559000   0.92796056   -2.6242336   -2.6242336    -1.232296   0.11689646   -2.6242336    1.3919377   439061 
  560000   0.92760547   -2.6239218   -2.6239218   -1.2325168   0.11046675   -2.6239218     1.391405   439061 
  561000   0.92678736   -2.6236989   -2.6236989    -1.233521   0.11539479   -2.6236989    1.3901779   439061 
  562000   0.92613541   -2.6228245   -2.6228245   -1.2336245   0.11060682   -2.6228245       1.3892   439061 
  563000    0.9270857    -2.623157    -2.623157   -1.2325316   0.11135282    -2.623157    1.3906254   439061 
  564000    0.9260077   -2.6228273   -2.6228273    -1.233819   0.11025812   -2.6228273    1.3890084   439061 
  565000   0.92456921   -2.6211037   -2.6211037    -1.234253   0.10980593   -2.6211037    1.3868507   439061 
  566000   0.92597238   -2.6231773   -2.6231773   -1.2342219   0.11075658   -2.6231773    1.3889554   439061 
  567000   0.92497956   -2.6226623   -2.6226623   -1.2351961   0.10819472   -2.6226623    1.3874662   439061 
  568000   0.92429752   -2.6207657   -2.6207657   -1.2343225   0.10729221   -2.6207657    1.3864431   439061 
  569000   0.92464486   -2.6219817   -2.6219817   -1.2350176   0.10561656   -2.6219817    1.3869641   439061 
  570000   0.92627605   -2.6233498   -2.6233498   -1.2339389   0.10714517   -2.6233498    1.3894109   439061 
  571000   0.92615374   -2.6229905   -2.6229905   -1.2337631   0.10876813   -2.6229905    1.3892275   439061 
  572000   0.92545475   -2.6225725   -2.6225725   -1.2343935   0.11140996   -2.6225725     1.388179   439061 
  573000   0.92418552   -2.6220734   -2.6220734   -1.2357982   0.11022291   -2.6220734    1.3862751   439061 
  574000   0.92460731   -2.6228851   -2.6228851   -1.2359773   0.10679282   -2.6228851    1.3869078   439061 
  575000   0.92409657   -2.6239919   -2.6239919   -1.2378502   0.10896968   -2.6239919    1.3861417   439061 
  576000   0.92427202   -2.6252767   -2.6252767   -1.2388718   0.11422031   -2.6252767    1.3864049   439061 
  577000   0.92315279   -2.6245541   -2.6245541   -1.2398281   0.11092708   -2.6245541     1.384726   439061 
  578000   0.92448249   -2.6274274   -2.6274274   -1.2407068   0.10978959   -2.6274274    1.3867206   439061 
  579000   0.92472543   -2.6280207   -2.6280207   -1.2409357   0.10804757   -2.6280207     1.387085   439061 
  580000   0.92490368   -2.6280058   -2.6280058   -1.2406534    0.1108184   -2.6280058    1.3873524   439061 
  581000   0.92524426    -2.627263    -2.627263   -1.2393998     0.109861    -2.627263    1.3878632   439061 
  582000   0.92478934   -2.6274754   -2.6274754   -1.2402945   0.10836826   -2.6274754    1.3871809   439061 
  583000   0.92438663   -2.6277471   -2.6277471   -1.2411703    0.1085001   -2.6277471    1.3865768   439061 
  584000   0.92457228   -2.6281744   -2.6281744   -1.2413191   0.10584786   -2.6281744    1.3868553   439061 
  585000   0.92516463    -2.629965    -2.629965   -1.2422212   0.10776207    -2.629965    1.3877438   439061 
  586000   0.92485801   -2.6293652   -2.6293652   -1.2420813   0.10622922   -2.6293652    1.3872839   439061 
  587000   0.92388751   -2.6280414   -2.6280414   -1.2422133   0.10893475   -2.6280414    1.3858281   439061 
  588000   0.92321803   -2.6267246   -2.6267246   -1.2419007    0.1146384   -2.6267246    1.3848239   439061 
  589000   0.92352847   -2.6272297   -2.6272297   -1.2419402   0.11130976   -2.6272297    1.3852895   439061 
  590000   0.92463159   -2.6304401   -2.6304401   -1.2434959    0.1115497   -2.6304401    1.3869442   439061 
  591000   0.92430602   -2.6310182   -2.6310182   -1.2445624   0.10719278   -2.6310182    1.3864559   439061 
  592000   0.92475961   -2.6324547   -2.6324547   -1.2453184   0.11027005   -2.6324547    1.3871363   439061 
  593000   0.92353721    -2.631142    -2.631142   -1.2458393   0.11056847    -2.631142    1.3853027   439061 
  594000   0.92287392   -2.6310179   -2.6310179   -1.2467102   0.11014932   -2.6310179    1.3843077   439061 
  595000    0.9237678    -2.633252    -2.633252   -1.2476035   0.10579539    -2.633252    1.3856485   439061 
  596000   0.92238626   -2.6323592   -2.6323592   -1.2487829   0.11110183   -2.6323592    1.3835762   439061 
  597000   0.92367987   -2.6343961   -2.6343961   -1.2488795   0.10746871   -2.6343961    1.3855167   439061 
  598000   0.92499106   -2.6359891   -2.6359891   -1.2485057   0.11143444   -2.6359891    1.3874834   439061 
  599000   0.92446666    -2.633993    -2.633993   -1.2472962   0.10707325    -2.633993    1.3866968   439061 
  600000   0.92371675   -2.6343851   -2.6343851   -1.2488132   0.10962843   -2.6343851     1.385572   439061 
  601000   0.92293631   -2.6336859   -2.6336859   -1.2492846   0.11065854   -2.6336859    1.3844013   439061 
  602000   0.92290419   -2.6339786   -2.6339786   -1.2496255    0.1082187   -2.6339786    1.3843531   439061 
  603000   0.92248983   -2.6347266   -2.6347266    -1.250995   0.10942465   -2.6347266    1.3837316   439061 
  604000   0.92217062    -2.634299    -2.634299   -1.2510462   0.10667385    -2.634299    1.3832528   439061 
  605000   0.92200699   -2.6347453   -2.6347453    -1.251738   0.10987619   -2.6347453    1.3830073   439061 
  606000   0.92196414   -2.6345715   -2.6345715   -1.2516284   0.10699906   -2.6345715    1.3829431   439061 
  607000   0.92028084   -2.6327155   -2.6327155   -1.2522974    0.1049106   -2.6327155    1.3804181   439061 
  608000   0.91931937   -2.6324698   -2.6324698   -1.2534939   0.10557932   -2.6324698    1.3789759   439061 
  609000   0.91930442   -2.6328106   -2.6328106   -1.2538571   0.10365913   -2.6328106    1.3789535   439061 
  610000   0.92028429   -2.6338083   -2.6338083    -1.253385   0.10759567   -2.6338083    1.3804233   439061 
  611000   0.91971866   -2.6332132   -2.6332132   -1.2536383   0.10131432   -2.6332132    1.3795748   439061 
  612000   0.92037548   -2.6327001   -2.6327001   -1.2521401   0.10769665   -2.6327001    1.3805601   439061 
  613000   0.92017141   -2.6340017   -2.6340017   -1.2537477   0.10249907   -2.6340017     1.380254   439061 
  614000   0.91951753   -2.6346607   -2.6346607   -1.2553876   0.10257236   -2.6346607    1.3792731   439061 
  615000   0.92091506   -2.6366621   -2.6366621   -1.2552927   0.10426212   -2.6366621    1.3813694   439061 
  616000   0.92056458   -2.6351375   -2.6351375   -1.2542938   0.10477429   -2.6351375    1.3808437   439061 
  617000    0.9210911   -2.6359419   -2.6359419   -1.2543083   0.10783737   -2.6359419    1.3816335   439061 
  618000   0.92030596   -2.6352002   -2.6352002   -1.2547444   0.10760876   -2.6352002    1.3804558   439061 
  619000   0.92058234   -2.6367894   -2.6367894   -1.2559191    0.1036906   -2.6367894    1.3808704   439061 
  620000   0.92025835   -2.6359397   -2.6359397   -1.2555554     0.111232   -2.6359397    1.3803844   439061 
  621000   0.92023996   -2.6352722   -2.6352722   -1.2549154   0.10851852   -2.6352722    1.3803568   439061 
  622000   0.91849027   -2.6343567   -2.6343567   -1.2566244   0.10622169   -2.6343567    1.3777323   439061 
  623000   0.92072867   -2.6373111   -2.6373111   -1.2562213   0.10254812   -2.6373111    1.3810899   439061 
  624000   0.92064302   -2.6377772   -2.6377772   -1.2568158   0.10444832   -2.6377772    1.3809614   439061 
  625000   0.91918086   -2.6359178   -2.6359178   -1.2571496   0.10807447   -2.6359178    1.3787681   439061 
  626000    0.9199979   -2.6375664   -2.6375664   -1.2575727   0.10435648   -2.6375664    1.3799937   439061 
  627000   0.92027671   -2.6379954   -2.6379954   -1.2575835   0.10726919   -2.6379954    1.3804119   439061 
  628000   0.92041846   -2.6380563   -2.6380563   -1.2574318   0.10647659   -2.6380563    1.3806245   439061 
  629000   0.91993332   -2.6383297   -2.6383297   -1.2584329   0.10929237   -2.6383297    1.3798968   439061 
  630000   0.91875628   -2.6369582   -2.6369582   -1.2588269   0.10182292   -2.6369582    1.3781313   439061 
  631000   0.91921941    -2.638253    -2.638253    -1.259427   0.10357847    -2.638253     1.378826   439061 
  632000   0.91862116   -2.6375642   -2.6375642   -1.2596356   0.11090277   -2.6375642    1.3779286   439061 
  633000   0.91988803   -2.6402404   -2.6402404   -1.2604114   0.10266783   -2.6402404    1.3798289   439061 
  634000   0.91890857   -2.6392144   -2.6392144   -1.2608547   0.10450708   -2.6392144    1.3783597   439061 
  635000   0.91879391   -2.6401191   -2.6401191   -1.2619313   0.10537847   -2.6401191    1.3781877   439061 
  636000    0.9192987   -2.6408513   -2.6408513   -1.2619064   0.10556483   -2.6408513    1.3789449   439061 
  637000   0.91886746   -2.6399313   -2.6399313   -1.2616332   0.10572579   -2.6399313    1.3782981   439061 
  638000   0.91710233   -2.6383205   -2.6383205   -1.2626701   0.10493519   -2.6383205    1.3756504   439061 
  639000   0.91833642   -2.6408972   -2.6408972   -1.2633957   0.10654475   -2.6408972    1.3775015   439061 
  640000   0.91797158   -2.6405559   -2.6405559   -1.2636017   0.10758065   -2.6405559    1.3769542   439061 
  641000   0.91847778   -2.6416505   -2.6416505   -1.2639369   0.10450676   -2.6416505    1.3777135   439061 
  642000   0.91923548   -2.6421901   -2.6421901     -1.26334    0.1068351   -2.6421901    1.3788501   439061 
  643000   0.91996552   -2.6450027   -2.6450027   -1.2650575   0.10408883   -2.6450027    1.3799451   439061 
  644000      0.91848   -2.6427516   -2.6427516   -1.2650348   0.10696722   -2.6427516    1.3777169   439061 
  645000   0.91782167   -2.6421783   -2.6421783    -1.265449   0.10702553   -2.6421783    1.3767294   439061 
  646000   0.91784202   -2.6429628   -2.6429628   -1.2662029    0.1071892   -2.6429628    1.3767599   439061 
  647000   0.91673947   -2.6407465   -2.6407465   -1.2656404   0.10484813   -2.6407465    1.3751061   439061 
  648000   0.91765485   -2.6435344   -2.6435344   -1.2670552   0.10361497   -2.6435344    1.3764791   439061 
  649000   0.91698686   -2.6437849   -2.6437849   -1.2683077   0.10337232   -2.6437849    1.3754772   439061 
  650000   0.91897031   -2.6462358   -2.6462358   -1.2677834   0.10756252   -2.6462358    1.3784523   439061 
  651000   0.91761504   -2.6460494   -2.6460494     -1.26963   0.10693905   -2.6460494    1.3764194   439061 
  652000   0.91660522   -2.6439615   -2.6439615   -1.2690568   0.10362248   -2.6439615    1.3749047   439061 
  653000   0.91652527   -2.6438733   -2.6438733   -1.2690885   0.10297658   -2.6438733    1.3747848   439061 
  654000   0.91775783   -2.6455537   -2.6455537     -1.26892   0.10037856   -2.6455537    1.3766336   439061 
  655000    0.9166456    -2.644371    -2.644371   -1.2694057    0.1043555    -2.644371    1.3749653   439061 
  656000   0.91579915   -2.6448042   -2.6448042   -1.2711086  0.098766092   -2.6448042    1.3736956   439061 
  657000   0.91545244   -2.6444107   -2.6444107   -1.2712352   0.10384511   -2.6444107    1.3731755   439061 
  658000   0.91696032   -2.6460931   -2.6460931   -1.2706557  0.096486556   -2.6460931    1.3754374   439061 
  659000   0.91720567   -2.6451065   -2.6451065   -1.2693011    0.1024119   -2.6451065    1.3758054   439061 
  660000   0.91676243   -2.6440867   -2.6440867   -1.2689462   0.10519801   -2.6440867    1.3751405   439061 
  661000   0.91721611   -2.6440816   -2.6440816   -1.2682606   0.10560119   -2.6440816     1.375821   439061 
  662000   0.91692356   -2.6442913   -2.6442913   -1.2689091  0.099851769   -2.6442913    1.3753822   439061 
  663000   0.91726864   -2.6454664   -2.6454664   -1.2695666   0.10553614   -2.6454664    1.3758998   439061 
  664000   0.91834364   -2.6476275   -2.6476275   -1.2701152   0.10108484   -2.6476275    1.3775123   439061 
  665000   0.91683048   -2.6467951   -2.6467951   -1.2715526   0.10065049   -2.6467951    1.3752426   439061 
  666000   0.91633865   -2.6452479   -2.6452479    -1.270743   0.10079466   -2.6452479    1.3745048   439061 
  667000   0.91710668   -2.6463928   -2.6463928   -1.2707359    0.1037699   -2.6463928    1.3756569   439061 
  668000   0.91540625   -2.6450131   -2.6450131   -1.2719069   0.10093141   -2.6450131    1.3731063   439061 
  669000   0.91618061   -2.6473527   -2.6473527   -1.2730849   0.10303988   -2.6473527    1.3742678   439061 
  670000   0.91709092   -2.6482939   -2.6482939   -1.2726607   0.10035891   -2.6482939    1.3756332   439061 
  671000   0.91642469   -2.6492009   -2.6492009    -1.274567   0.10162074   -2.6492009    1.3746339   439061 
  672000   0.91366121    -2.644937    -2.644937   -1.2744483   0.10389317    -2.644937    1.3704887   439061 
  673000   0.91587101   -2.6483004   -2.6483004    -1.274497   0.10395643   -2.6483004    1.3738034   439061 
  674000   0.91552155   -2.6494048   -2.6494048   -1.2761256   0.10029701   -2.6494048    1.3732792   439061 
  675000   0.91358721   -2.6471589   -2.6471589   -1.2767812   0.10320415   -2.6471589    1.3703777   439061 
  676000   0.91527203   -2.6508516   -2.6508516   -1.2779467   0.10124785   -2.6508516    1.3729049   439061 
  677000   0.91457155   -2.6507303   -2.6507303   -1.2788761   0.10182394   -2.6507303    1.3718542   439061 
  678000   0.91334482    -2.648313    -2.648313   -1.2782989   0.10014772    -2.648313    1.3700141   439061 
  679000   0.91391155   -2.6494021   -2.6494021   -1.2785379  0.097751734   -2.6494021    1.3708642   439061 
  680000   0.91383304   -2.6497773   -2.6497773   -1.2790309  0.098737637   -2.6497773    1.3707464   439061 
  681000   0.91261795   -2.6481195   -2.6481195   -1.2791957  0.096738459   -2.6481195    1.3689238   439061 
  682000   0.91472287   -2.6510204   -2.6510204   -1.2789392   0.10120581   -2.6510204    1.3720812   439061 
  683000   0.91493634   -2.6500772   -2.6500772   -1.2776759  0.098380485   -2.6500772    1.3724014   439061 
  684000   0.91516702   -2.6514825   -2.6514825   -1.2787351   0.10252193   -2.6514825    1.3727474   439061 
  685000   0.91542986   -2.6513754   -2.6513754   -1.2782337    0.1005315   -2.6513754    1.3731417   439061 
  686000   0.91540508   -2.6517002   -2.6517002   -1.2785957   0.10309509   -2.6517002    1.3731045   439061 
  687000   0.91545385   -2.6516322   -2.6516322   -1.2784545  0.099843094   -2.6516322    1.3731777   439061 
  688000   0.91530175   -2.6531595   -2.6531595     -1.28021  0.099292765   -2.6531595    1.3729495   439061 
  689000   0.91367647   -2.6512917   -2.6512917   -1.2807802  0.099723426   -2.6512917    1.3705116   439061 
  690000   0.91467966   -2.6532139   -2.6532139   -1.2811975  0.099547604   -2.6532139    1.3720164   439061 
  691000   0.91460371   -2.6543083   -2.6543083   -1.2824058  0.095426212   -2.6543083    1.3719024   439061 
  692000   0.91395815   -2.6538585   -2.6538585   -1.2829244   0.10033764   -2.6538585    1.3709341   439061 
  693000   0.91459413   -2.6554507   -2.6554507   -1.2835626   0.10053782   -2.6554507    1.3718881   439061 
  694000   0.91296178   -2.6530298   -2.6530298   -1.2835903   0.10188364   -2.6530298    1.3694395   439061 
  695000   0.91462354   -2.6569578   -2.6569578   -1.2850256  0.099976553   -2.6569578    1.3719322   439061 
  696000   0.91557119   -2.6589731   -2.6589731   -1.2856195  0.096836078   -2.6589731    1.3733537   439061 
  697000   0.91448742   -2.6567767   -2.6567767   -1.2850487   0.10327764   -2.6567767     1.371728   439061 
  698000   0.91467318   -2.6568215   -2.6568215   -1.2848148   0.09732598   -2.6568215    1.3720066   439061 
  699000   0.91406803    -2.656219    -2.656219   -1.2851201   0.10562016    -2.656219    1.3710989   439061 
  700000   0.91335822   -2.6556347   -2.6556347   -1.2856005   0.10515337   -2.6556347    1.3700342   439061 
  701000   0.91566068   -2.6586863   -2.6586863   -1.2851984   0.10054769   -2.6586863    1.3734879   439061 
  702000   0.91262087   -2.6557358   -2.6557358   -1.2868076  0.099007541   -2.6557358    1.3689282   439061 
  703000   0.91333906   -2.6561309   -2.6561309   -1.2861254   0.10234933   -2.6561309    1.3700055   439061 
  704000   0.91260859   -2.6556913   -2.6556913   -1.2867816    0.1005781   -2.6556913    1.3689098   439061 
[...]
 4832000   0.85563822   -3.0063087   -3.0063087   -1.7228543  0.056318935   -3.0063087    1.2834544   439061 
 4833000    0.8568075   -3.0087838   -3.0087838   -1.7235755  0.052236511   -3.0087838    1.2852083   439061 
 4834000   0.85634518   -3.0091879   -3.0091879    -1.724673  0.048013501   -3.0091879    1.2845148   439061 
 4835000   0.85669901   -3.0099341   -3.0099341   -1.7248885  0.057201996   -3.0099341    1.2850456   439061 
 4836000   0.85792495   -3.0115837   -3.0115837   -1.7246992  0.056091613   -3.0115837    1.2868845   439061 
 4837000     0.856501   -3.0098147   -3.0098147   -1.7250661  0.051956976   -3.0098147    1.2847486   439061 
 4838000   0.85726801   -3.0095562   -3.0095562   -1.7236571  0.058122588   -3.0095562    1.2858991   439061 
 4839000   0.85614766   -3.0089669   -3.0089669   -1.7247484  0.057461658   -3.0089669    1.2842186   439061 
 4840000   0.85814564   -3.0111802   -3.0111802   -1.7239646  0.050617794   -3.0111802    1.2872155   439061 
 4841000   0.85780954   -3.0114144   -3.0114144    -1.724703  0.052846734   -3.0114144    1.2867114   439061 
 4842000   0.85700883   -3.0099475   -3.0099475   -1.7244372  0.056667149   -3.0099475    1.2855103   439061 
 4843000   0.85753413    -3.010464    -3.010464   -1.7241657  0.055317138    -3.010464    1.2862983   439061 
 4844000   0.85742537   -3.0087555   -3.0087555   -1.7226204  0.059325246   -3.0087555    1.2861351   439061 
 4845000   0.85843706   -3.0099618   -3.0099618   -1.7223091  0.053719638   -3.0099618    1.2876527   439061 
 4846000   0.85714052   -3.0078296   -3.0078296   -1.7221217  0.056923175   -3.0078296    1.2857078   439061 
 4847000   0.85891024   -3.0093807   -3.0093807   -1.7210183  0.053355863   -3.0093807    1.2883624   439061 
 4848000   0.85677891   -3.0065642   -3.0065642   -1.7213988  0.048155326   -3.0065642    1.2851654   439061 
 4849000   0.85699784   -3.0068309   -3.0068309    -1.721337  0.050409265   -3.0068309    1.2854938   439061 
 4850000   0.85802777   -3.0078449   -3.0078449   -1.7208061  0.050195935   -3.0078449    1.2870387   439061 
 4851000   0.85648067     -3.00542     -3.00542   -1.7207019  0.052459178     -3.00542    1.2847181   439061 
 4852000   0.85589274   -3.0050223   -3.0050223   -1.7211861  0.052478971   -3.0050223    1.2838362   439061 
 4853000   0.85506163   -3.0035708   -3.0035708   -1.7209813  0.047633835   -3.0035708    1.2825895   439061 
 4854000   0.85536768   -3.0046589   -3.0046589   -1.7216103  0.049175365   -3.0046589    1.2830486   439061 
 4855000   0.85578043   -3.0037327   -3.0037327    -1.720065  0.050980785   -3.0037327    1.2836677   439061 
 4856000   0.85573374   -3.0040418   -3.0040418   -1.7204441  0.048788382   -3.0040418    1.2835977   439061 
 4857000   0.85576999   -3.0051886   -3.0051886   -1.7215365   0.04468486   -3.0051886    1.2836521   439061 
 4858000   0.85561478   -3.0048407   -3.0048407   -1.7214215  0.049651114   -3.0048407    1.2834192   439061 
 4859000   0.85540286   -3.0033035   -3.0033035   -1.7202021  0.050429771   -3.0033035    1.2831014   439061 
 4860000   0.85403924    -3.000298    -3.000298   -1.7192421  0.053926302    -3.000298    1.2810559   439061 
 4861000   0.85538122   -3.0011573   -3.0011573   -1.7180884   0.05191172   -3.0011573    1.2830689   439061 
 4862000   0.85615193   -3.0031216   -3.0031216   -1.7188966   0.04971096   -3.0031216     1.284225   439061 
 4863000   0.85552466   -3.0023917   -3.0023917   -1.7191077  0.049347214   -3.0023917    1.2832841   439061 
 4864000   0.85565935   -3.0023944   -3.0023944   -1.7189083   0.05011322   -3.0023944    1.2834861   439061 
 4865000   0.85652817   -3.0039014   -3.0039014    -1.719112  0.053251167   -3.0039014    1.2847893   439061 
 4866000   0.85774264    -3.004093    -3.004093   -1.7174819   0.05032957    -3.004093     1.286611   439061 
 4867000   0.85728413   -3.0039911   -3.0039911   -1.7180678  0.050930189   -3.0039911    1.2859233   439061 
 4868000    0.8566868   -3.0028045   -3.0028045   -1.7177772  0.056320107   -3.0028045    1.2850273   439061 
 4869000   0.85666896   -3.0034035   -3.0034035    -1.718403  0.054453505   -3.0034035    1.2850005   439061 
 4870000   0.85764628    -3.005875    -3.005875   -1.7194085  0.051006483    -3.005875    1.2864665   439061 
 4871000   0.85808281   -3.0059421   -3.0059421   -1.7188209  0.055093652   -3.0059421    1.2871213   439061 
 4872000   0.85763344   -3.0050368   -3.0050368   -1.7185895  0.049226658   -3.0050368    1.2864472   439061 
 4873000   0.85581907   -3.0043718   -3.0043718   -1.7206461  0.049846885   -3.0043718    1.2837257   439061 
 4874000   0.85727818   -3.0063035   -3.0063035   -1.7203891  0.052831016   -3.0063035    1.2859143   439061 
 4875000   0.85649114   -3.0054811   -3.0054811   -1.7207473   0.05530054   -3.0054811    1.2847338   439061 
 4876000   0.85730079   -3.0068544   -3.0068544   -1.7209061  0.055652256   -3.0068544    1.2859483   439061 
 4877000   0.85595984   -3.0049894   -3.0049894   -1.7210526  0.057495188   -3.0049894    1.2839368   439061 
 4878000   0.85617148   -3.0058488   -3.0058488   -1.7215945  0.049239804   -3.0058488    1.2842543   439061 
 4879000    0.8553879   -3.0058021   -3.0058021   -1.7227232  0.051831823   -3.0058021    1.2830789   439061 
 4880000   0.85597089   -3.0070605   -3.0070605    -1.723107  0.050269087   -3.0070605    1.2839534   439061 
 4881000   0.85627276   -3.0070292   -3.0070292    -1.722623  0.056668835   -3.0070292    1.2844062   439061 
 4882000   0.85753103   -3.0098223   -3.0098223   -1.7235287  0.051862233   -3.0098223    1.2862936   439061 
 4883000   0.85602882   -3.0087643   -3.0087643    -1.724724  0.056099738   -3.0087643    1.2840403   439061 
 4884000   0.85661637   -3.0093718   -3.0093718   -1.7244502  0.055602091   -3.0093718    1.2849216   439061 
 4885000   0.85571247   -3.0080085   -3.0080085   -1.7244427  0.052236538   -3.0080085    1.2835658   439061 
 4886000   0.85694054   -3.0086508   -3.0086508   -1.7232429  0.049303273   -3.0086508    1.2854079   439061 
 4887000   0.85674753   -3.0093378   -3.0093378   -1.7242194    0.0554652   -3.0093378    1.2851184   439061 
 4888000   0.85681925    -3.009491    -3.009491   -1.7242651  0.055149424    -3.009491    1.2852259   439061 
 4889000   0.85729384    -3.011098    -3.011098   -1.7251602  0.048823114    -3.011098    1.2859378   439061 
 4890000   0.85573002    -3.008355    -3.008355   -1.7247629  0.049410195    -3.008355    1.2835921   439061 
 4891000   0.85694071   -3.0102282   -3.0102282   -1.7248201  0.054827671   -3.0102282    1.2854081   439061 
 4892000   0.85700648   -3.0103993   -3.0103993   -1.7248925  0.050962505   -3.0103993    1.2855068   439061 
 4893000   0.85618491   -3.0085144   -3.0085144   -1.7242399  0.054020962   -3.0085144    1.2842744   439061 
 4894000   0.85499295   -3.0065994   -3.0065994   -1.7241129   0.05398959   -3.0065994    1.2824865   439061 
 4895000    0.8566743   -3.0084536   -3.0084536   -1.7234451  0.054569878   -3.0084536    1.2850085   439061 
 4896000   0.85720253   -3.0102045   -3.0102045   -1.7244036  0.049510774   -3.0102045    1.2858009   439061 
 4897000   0.85662476   -3.0090117   -3.0090117   -1.7240775  0.055434075   -3.0090117    1.2849342   439061 
 4898000   0.85663698   -3.0082052   -3.0082052   -1.7232527  0.051210679   -3.0082052    1.2849525   439061 
 4899000   0.85630645   -3.0081749   -3.0081749   -1.7237181  0.054655737   -3.0081749    1.2844567   439061 
 4900000   0.85530187    -3.008133    -3.008133   -1.7251832  0.048722317    -3.008133    1.2829499   439061 
 4901000   0.85517042   -3.0072506   -3.0072506   -1.7244978  0.057757189   -3.0072506    1.2827527   439061 
 4902000   0.85632705   -3.0084742   -3.0084742   -1.7239866  0.053907122   -3.0084742    1.2844876   439061 
 4903000   0.85694567   -3.0096952   -3.0096952   -1.7242796  0.048073708   -3.0096952    1.2854156   439061 
 4904000   0.85572263   -3.0081964   -3.0081964   -1.7246154  0.049746942   -3.0081964     1.283581   439061 
 4905000   0.85565666   -3.0074097   -3.0074097   -1.7239276  0.051378503   -3.0074097    1.2834821   439061 
 4906000   0.85676884   -3.0097172   -3.0097172   -1.7245669   0.04649943   -3.0097172    1.2851503   439061 
 4907000   0.85643734   -3.0083718   -3.0083718   -1.7237187  0.046068404   -3.0083718    1.2846531   439061 
 4908000   0.85544098   -3.0069357   -3.0069357   -1.7237772  0.055069125   -3.0069357    1.2831585   439061 
 4909000   0.85488275   -3.0065316   -3.0065316   -1.7242104  0.050306389   -3.0065316    1.2823212   439061 
 4910000   0.85589141    -3.007114    -3.007114   -1.7232799   0.05456187    -3.007114    1.2838342   439061 
 4911000   0.85635527   -3.0076656   -3.0076656   -1.7231356  0.052177106   -3.0076656      1.28453   439061 
 4912000   0.85700209   -3.0078906   -3.0078906   -1.7223904   0.05710835   -3.0078906    1.2855002   439061 
 4913000   0.85850494   -3.0080262   -3.0080262   -1.7202717  0.047772189   -3.0080262    1.2877545   439061 
 4914000     0.857574   -3.0068941   -3.0068941    -1.720536   0.05209548   -3.0068941    1.2863581   439061 
 4915000   0.85664551   -3.0056585   -3.0056585   -1.7206932  0.058908048   -3.0056585    1.2849653   439061 
 4916000   0.85590991   -3.0041021   -3.0041021   -1.7202402  0.055754786   -3.0041021    1.2838619   439061 
 4917000   0.85823289   -3.0076698   -3.0076698   -1.7203234  0.051409309   -3.0076698    1.2873464   439061 
 4918000   0.85679379   -3.0065554   -3.0065554   -1.7213676  0.054098341   -3.0065554    1.2851878   439061 
 4919000   0.85776047   -3.0067242   -3.0067242   -1.7200865  0.049427666   -3.0067242    1.2866378   439061 
 4920000   0.85859825   -3.0062164   -3.0062164   -1.7183219  0.056952614   -3.0062164    1.2878944   439061 
 4921000   0.85734335   -3.0070901   -3.0070901    -1.721078  0.048490566   -3.0070901    1.2860121   439061 
 4922000   0.85624968   -3.0056358   -3.0056358   -1.7212642  0.052623246   -3.0056358    1.2843716   439061 
 4923000   0.85550874    -3.004608    -3.004608   -1.7213479  0.051183876    -3.004608    1.2832602   439061 
 4924000   0.85539451   -3.0037902   -3.0037902   -1.7207014   0.04982112   -3.0037902    1.2830888   439061 
 4925000   0.85774097   -3.0075368   -3.0075368   -1.7209283  0.046833312   -3.0075368    1.2866085   439061 
 4926000   0.85566474   -3.0044196   -3.0044196   -1.7209254  0.049033777   -3.0044196    1.2834942   439061 
 4927000   0.85577077   -3.0040318   -3.0040318   -1.7203785  0.048367458   -3.0040318    1.2836532   439061 
 4928000   0.85438652   -3.0031146   -3.0031146   -1.7215378  0.052624509   -3.0031146    1.2815769   439061 
 4929000   0.85571971   -3.0031824   -3.0031824   -1.7196057  0.052465501   -3.0031824    1.2835766   439061 
 4930000   0.85648716   -3.0048229   -3.0048229   -1.7200951  0.041556577   -3.0048229    1.2847278   439061 
 4931000   0.85783688   -3.0055813   -3.0055813   -1.7188289  0.044521839   -3.0055813    1.2867524   439061 
 4932000   0.85764266   -3.0047689   -3.0047689   -1.7183079  0.055643614   -3.0047689    1.2864611   439061 
 4933000   0.85850144   -3.0078581   -3.0078581   -1.7201089  0.051833641   -3.0078581    1.2877492   439061 
 4934000   0.85713972   -3.0053383   -3.0053383   -1.7196316  0.050797147   -3.0053383    1.2857067   439061 
 4935000   0.85673101    -3.005247    -3.005247   -1.7201534  0.054938069    -3.005247    1.2850936   439061 
 4936000   0.85680529   -3.0063361   -3.0063361   -1.7211311  0.053078684   -3.0063361     1.285205   439061 
 4937000   0.85709405   -3.0066557   -3.0066557   -1.7210176  0.047998783   -3.0066557    1.2856382   439061 
 4938000   0.85545711    -3.005016    -3.005016   -1.7218333   0.05754034    -3.005016    1.2831827   439061 
 4939000   0.85573243    -3.005434    -3.005434   -1.7218383   0.05328212    -3.005434    1.2835957   439061 
 4940000   0.85539035   -3.0061988   -3.0061988   -1.7231162  0.052063358   -3.0061988    1.2830826   439061 
 4941000   0.85647192   -3.0081424   -3.0081424   -1.7234374  0.053991118   -3.0081424     1.284705   439061 
 4942000   0.85606392   -3.0078525   -3.0078525   -1.7237596  0.051980019   -3.0078525     1.284093   439061 
 4943000   0.85586085   -3.0077905   -3.0077905   -1.7240022  0.047682007   -3.0077905    1.2837883   439061 
 4944000   0.85548523   -3.0071567   -3.0071567   -1.7239318  0.053154963   -3.0071567    1.2832249   439061 
 4945000   0.85494955    -3.006972    -3.006972   -1.7245506  0.051172083    -3.006972    1.2824214   439061 
 4946000   0.85585218   -3.0087625   -3.0087625   -1.7249872  0.052818769   -3.0087625    1.2837753   439061 
 4947000   0.85691926    -3.009908    -3.009908    -1.724532  0.052194072    -3.009908     1.285376   439061 
 4948000   0.85665663   -3.0106243   -3.0106243   -1.7256423  0.054069966   -3.0106243     1.284982   439061 
 4949000   0.85698868    -3.010679    -3.010679   -1.7251989  0.058322537    -3.010679    1.2854801   439061 
 4950000   0.85676764   -3.0106374   -3.0106374   -1.7254889  0.054956476   -3.0106374    1.2851485   439061 
 4951000   0.85582281   -3.0098252   -3.0098252   -1.7260939  0.052675029   -3.0098252    1.2837313   439061 
 4952000   0.85592691   -3.0100392   -3.0100392   -1.7261518  0.051358324   -3.0100392    1.2838874   439061 
 4953000   0.85594184   -3.0096711   -3.0096711   -1.7257613  0.051620371   -3.0096711    1.2839098   439061 
 4954000   0.85742832   -3.0115661   -3.0115661   -1.7254265  0.054744193   -3.0115661    1.2861396   439061 
 4955000   0.85864876   -3.0127519   -3.0127519   -1.7247817  0.054398345   -3.0127519    1.2879702   439061 
 4956000   0.85721282   -3.0119283   -3.0119283    -1.726112  0.053895311   -3.0119283    1.2858163   439061 
 4957000   0.85766308   -3.0129813   -3.0129813   -1.7264897  0.054720334   -3.0129813    1.2864917   439061 
 4958000   0.85857631   -3.0138997   -3.0138997   -1.7260381    0.0520157   -3.0138997    1.2878615   439061 
 4959000   0.85676942   -3.0108464   -3.0108464   -1.7256952  0.053703477   -3.0108464    1.2851512   439061 
 4960000   0.85612957   -3.0109469   -3.0109469   -1.7267555  0.048748503   -3.0109469    1.2841914   439061 
 4961000    0.8557676    -3.010211    -3.010211   -1.7265625   0.05780438    -3.010211    1.2836485   439061 
 4962000   0.85594767   -3.0108139   -3.0108139   -1.7268954  0.053294795   -3.0108139    1.2839186   439061 
 4963000   0.85568634   -3.0102259   -3.0102259   -1.7266994  0.055763146   -3.0102259    1.2835266   439061 
 4964000   0.85526241   -3.0102708   -3.0102708   -1.7273801   0.05196318   -3.0102708    1.2828907   439061 
 4965000    0.8552232    -3.009195    -3.009195   -1.7263631  0.052944257    -3.009195    1.2828319   439061 
 4966000   0.85472689   -3.0089261   -3.0089261   -1.7268387  0.052640152   -3.0089261    1.2820874   439061 
 4967000   0.85543556   -3.0101394   -3.0101394    -1.726989  0.046588182   -3.0101394    1.2831504   439061 
 4968000   0.85394837   -3.0063748   -3.0063748   -1.7254551  0.055776916   -3.0063748    1.2809196   439061 
 4969000   0.85737709   -3.0101811   -3.0101811   -1.7241184  0.050315077   -3.0101811    1.2860627   439061 
 4970000   0.85832917   -3.0107352   -3.0107352   -1.7232444  0.055885759   -3.0107352    1.2874908   439061 
 4971000   0.85669948   -3.0089905   -3.0089905   -1.7239442  0.055603414   -3.0089905    1.2850463   439061 
 4972000   0.85725351   -3.0104157   -3.0104157   -1.7245383   0.05056196   -3.0104157    1.2858773   439061 
 4973000    0.8574692   -3.0100076   -3.0100076   -1.7238068  0.047529622   -3.0100076    1.2862009   439061 
 4974000   0.85626033   -3.0081071   -3.0081071   -1.7237195  0.052992373   -3.0081071    1.2843876   439061 
 4975000     0.857713   -3.0095489   -3.0095489   -1.7229823  0.052280342   -3.0095489    1.2865666   439061 
 4976000   0.85705935   -3.0081711   -3.0081711    -1.722585  0.052105357   -3.0081711    1.2855861   439061 
 4977000   0.85573033   -3.0066703   -3.0066703   -1.7230777  0.049298298   -3.0066703    1.2835926   439061 
 4978000   0.85622865   -3.0064475   -3.0064475   -1.7221074  0.053038562   -3.0064475      1.28434   439061 
 4979000   0.85512455   -3.0051658   -3.0051658   -1.7224819  0.045701478   -3.0051658    1.2826839   439061 
 4980000     0.854238   -3.0058803   -3.0058803   -1.7245262  0.053336339   -3.0058803    1.2813541   439061 
 4981000   0.85551331   -3.0084384   -3.0084384   -1.7251714  0.046293516   -3.0084384     1.283267   439061 
 4982000   0.85627288   -3.0089388   -3.0089388   -1.7245324  0.049438507   -3.0089388    1.2844064   439061 
 4983000   0.85625703   -3.0075763   -3.0075763   -1.7231937  0.057253344   -3.0075763    1.2843826   439061 
 4984000   0.85790121   -3.0114536   -3.0114536   -1.7246048  0.049786291   -3.0114536    1.2868489   439061 
 4985000   0.85495039   -3.0084066   -3.0084066    -1.725984  0.049846986   -3.0084066    1.2824227   439061 
 4986000   0.85687402   -3.0102785   -3.0102785   -1.7249704  0.048749424   -3.0102785    1.2853081   439061 
 4987000   0.85545122   -3.0077912   -3.0077912   -1.7246173  0.051446459   -3.0077912    1.2831739   439061 
 4988000   0.85428344   -3.0058372   -3.0058372    -1.724415  0.052021253   -3.0058372    1.2814222   439061 
 4989000   0.85413064   -3.0069526   -3.0069526   -1.7257595  0.048047907   -3.0069526     1.281193   439061 
 4990000   0.85324559   -3.0057559   -3.0057559   -1.7258905  0.053628787   -3.0057559    1.2798655   439061 
 4991000   0.85593151   -3.0092602   -3.0092602   -1.7253658   0.05135818   -3.0092602    1.2838943   439061 
 4992000   0.85519298    -3.007218    -3.007218   -1.7244315  0.051363625    -3.007218    1.2827865   439061 
 4993000   0.85650618   -3.0092012   -3.0092012   -1.7244448  0.050381552   -3.0092012    1.2847563   439061 
 4994000   0.85640667   -3.0105148   -3.0105148   -1.7259078  0.049001151   -3.0105148    1.2846071   439061 
 4995000   0.85432413   -3.0087616   -3.0087616   -1.7272783  0.054560934   -3.0087616    1.2814833   439061 
 4996000   0.85561089   -3.0104684   -3.0104684    -1.727055  0.049575859   -3.0104684    1.2834134   439061 
 4997000   0.85497724   -3.0086264   -3.0086264   -1.7261635   0.05335043   -3.0086264    1.2824629   439061 
 4998000   0.85583824   -3.0098368   -3.0098368   -1.7260824  0.051351449   -3.0098368    1.2837544   439061 
 4999000   0.85701705   -3.0122778   -3.0122778   -1.7267551  0.051421553   -3.0122778    1.2855227   439061 
 5000000   0.85626335   -3.0113795   -3.0113795   -1.7269874  0.050517192   -3.0113795    1.2843921   439061 
Loop time of 8664.38 on 192 procs for 5000000 steps with 439061 atoms

Performance: 249296.494 tau/day, 577.075 timesteps/s
89.9% CPU use with 192 MPI tasks x 1 OpenMP threads

MPI task timing breakdown:
Section |  min time  |  avg time  |  max time  |%varavg|  %CPU | %total
-----------------------------------------------------------------------
Pair    | 1933.1     | 4093.6     | 4928.3     |1300.7 |  92.7 | 47.25
Bond    | 3.1692     | 3.3392     | 3.5227     |   4.3 | 100.0 |  0.04
Neigh   | 972.03     | 1506.8     | 1689.4     | 511.0 |  98.3 | 17.39
Comm    | 1077.5     | 2376.8     | 5017.9     |2117.1 |  84.9 | 27.43
Output  | 277.31     | 280.26     | 280.3      |   1.3 |  68.0 |  3.23
Modify  | 135.61     | 225.74     | 638.9      |1079.6 |  88.8 |  2.61
Other   |            | 177.9      |            |       |       |  2.05

Nlocal:        2286.78 ave        2686 max        1959 min
Histogram: 2 2 4 25 124 28 3 2 0 2
Nghost:        3437.98 ave        3757 max        2541 min
Histogram: 3 9 32 4 0 0 0 0 52 92
Neighs:        64234.6 ave       73361 max       20554 min
Histogram: 2 10 5 5 1 1 0 0 65 103

Total # of neighbors = 12333036
Ave neighs/atom = 28.089573
Ave special neighs/atom = 0.0000000
Neighbor list builds = 500000
Dangerous builds = 495000
System init for write_data ...
Total wall time: 2:24:28
