#LAMMPS data file for polygons: cubes, moment of inertia I = m edge^2/ 6
7000 atoms
7000 bodies
2 atom types
0 40 xlo xhi
0 40 ylo yhi
0 40 zlo zhi

Atoms

1	1	1	1	1	1	1
2	1	1	1	1	1	3
3	1	1	1	1	1	5
4	1	1	1	1	1	7
5	1	1	1	1	1	9
6	1	1	1	1	1	11
7	1	1	1	1	1	13
8	1	1	1	1	1	15
9	1	1	1	1	1	17
10	1	1	1	1	1	19
11	1	1	1	1	1	21
12	1	1	1	1	1	23
13	1	1	1	1	1	25
14	1	1	1	1	1	27
15	1	1	1	1	1	29
16	1	1	1	1	1	31
17	1	1	1	1	1	33
18	1	1	1	1	1	35
19	1	1	1	1	1	37
20	1	1	1	1	1	39
21	1	1	1	1	3	1
22	1	1	1	1	3	3
23	1	1	1	1	3	5
24	1	1	1	1	3	7
25	1	1	1	1	3	9
26	1	1	1	1	3	11
27	1	1	1	1	3	13
28	1	1	1	1	3	15
29	1	1	1	1	3	17
30	1	1	1	1	3	19
31	1	1	1	1	3	21
32	1	1	1	1	3	23
33	1	1	1	1	3	25
34	1	1	1	1	3	27
35	1	1	1	1	3	29
36	1	1	1	1	3	31
37	1	1	1	1	3	33
38	1	1	1	1	3	35
39	1	1	1	1	3	37
40	1	1	1	1	3	39
41	1	1	1	1	5	1
42	1	1	1	1	5	3
43	1	1	1	1	5	5
44	1	1	1	1	5	7
45	1	1	1	1	5	9
46	1	1	1	1	5	11
47	1	1	1	1	5	13
48	1	1	1	1	5	15
49	1	1	1	1	5	17
50	1	1	1	1	5	19
51	1	1	1	1	5	21
52	1	1	1	1	5	23
53	1	1	1	1	5	25
54	1	1	1	1	5	27
55	1	1	1	1	5	29
56	1	1	1	1	5	31
57	1	1	1	1	5	33
58	1	1	1	1	5	35
59	1	1	1	1	5	37
60	1	1	1	1	5	39
61	1	1	1	1	7	1
62	1	1	1	1	7	3
63	1	1	1	1	7	5
64	1	1	1	1	7	7
65	1	1	1	1	7	9
66	1	1	1	1	7	11
67	1	1	1	1	7	13
68	1	1	1	1	7	15
69	1	1	1	1	7	17
70	1	1	1	1	7	19
71	1	1	1	1	7	21
72	1	1	1	1	7	23
73	1	1	1	1	7	25
74	1	1	1	1	7	27
75	1	1	1	1	7	29
76	1	1	1	1	7	31
77	1	1	1	1	7	33
78	1	1	1	1	7	35
79	1	1	1	1	7	37
80	1	1	1	1	7	39
81	1	1	1	1	9	1
82	1	1	1	1	9	3
83	1	1	1	1	9	5
84	1	1	1	1	9	7
85	1	1	1	1	9	9
86	1	1	1	1	9	11
87	1	1	1	1	9	13
88	1	1	1	1	9	15
89	1	1	1	1	9	17
90	1	1	1	1	9	19
91	1	1	1	1	9	21
92	1	1	1	1	9	23
93	1	1	1	1	9	25
94	1	1	1	1	9	27
95	1	1	1	1	9	29
96	1	1	1	1	9	31
97	1	1	1	1	9	33
98	1	1	1	1	9	35
99	1	1	1	1	9	37
100	1	1	1	1	9	39
101	1	1	1	1	11	1
102	1	1	1	1	11	3
103	1	1	1	1	11	5
104	1	1	1	1	11	7
105	1	1	1	1	11	9
106	1	1	1	1	11	11
107	1	1	1	1	11	13
108	1	1	1	1	11	15
109	1	1	1	1	11	17
110	1	1	1	1	11	19
111	1	1	1	1	11	21
112	1	1	1	1	11	23
113	1	1	1	1	11	25
114	1	1	1	1	11	27
115	1	1	1	1	11	29
116	1	1	1	1	11	31
117	1	1	1	1	11	33
118	1	1	1	1	11	35
119	1	1	1	1	11	37
120	1	1	1	1	11	39
121	1	1	1	1	13	1
122	1	1	1	1	13	3
123	1	1	1	1	13	5
124	1	1	1	1	13	7
125	1	1	1	1	13	9
126	1	1	1	1	13	11
127	1	1	1	1	13	13
128	1	1	1	1	13	15
129	1	1	1	1	13	17
130	1	1	1	1	13	19
131	1	1	1	1	13	21
132	1	1	1	1	13	23
133	1	1	1	1	13	25
134	1	1	1	1	13	27
135	1	1	1	1	13	29
136	1	1	1	1	13	31
137	1	1	1	1	13	33
138	1	1	1	1	13	35
139	1	1	1	1	13	37
140	1	1	1	1	13	39
141	1	1	1	1	15	1
142	1	1	1	1	15	3
143	1	1	1	1	15	5
144	1	1	1	1	15	7
145	1	1	1	1	15	9
146	1	1	1	1	15	11
147	1	1	1	1	15	13
148	1	1	1	1	15	15
149	1	1	1	1	15	17
150	1	1	1	1	15	19
151	1	1	1	1	15	21
152	1	1	1	1	15	23
153	1	1	1	1	15	25
154	1	1	1	1	15	27
155	1	1	1	1	15	29
156	1	1	1	1	15	31
157	1	1	1	1	15	33
158	1	1	1	1	15	35
159	1	1	1	1	15	37
160	1	1	1	1	15	39
161	1	1	1	1	17	1
162	1	1	1	1	17	3
163	1	1	1	1	17	5
164	1	1	1	1	17	7
165	1	1	1	1	17	9
166	1	1	1	1	17	11
167	1	1	1	1	17	13
168	1	1	1	1	17	15
169	1	1	1	1	17	17
170	1	1	1	1	17	19
171	1	1	1	1	17	21
172	1	1	1	1	17	23
173	1	1	1	1	17	25
174	1	1	1	1	17	27
175	1	1	1	1	17	29
176	1	1	1	1	17	31
177	1	1	1	1	17	33
178	1	1	1	1	17	35
179	1	1	1	1	17	37
180	1	1	1	1	17	39
181	1	1	1	1	19	1
182	1	1	1	1	19	3
183	1	1	1	1	19	5
184	1	1	1	1	19	7
185	1	1	1	1	19	9
186	1	1	1	1	19	11
187	1	1	1	1	19	13
188	1	1	1	1	19	15
189	1	1	1	1	19	17
190	1	1	1	1	19	19
191	1	1	1	1	19	21
192	1	1	1	1	19	23
193	1	1	1	1	19	25
194	1	1	1	1	19	27
195	1	1	1	1	19	29
196	1	1	1	1	19	31
197	1	1	1	1	19	33
198	1	1	1	1	19	35
199	1	1	1	1	19	37
200	1	1	1	1	19	39
201	1	1	1	1	21	1
202	1	1	1	1	21	3
203	1	1	1	1	21	5
204	1	1	1	1	21	7
205	1	1	1	1	21	9
206	1	1	1	1	21	11
207	1	1	1	1	21	13
208	1	1	1	1	21	15
209	1	1	1	1	21	17
210	1	1	1	1	21	19
211	1	1	1	1	21	21
212	1	1	1	1	21	23
213	1	1	1	1	21	25
214	1	1	1	1	21	27
215	1	1	1	1	21	29
216	1	1	1	1	21	31
217	1	1	1	1	21	33
218	1	1	1	1	21	35
219	1	1	1	1	21	37
220	1	1	1	1	21	39
221	1	1	1	1	23	1
222	1	1	1	1	23	3
223	1	1	1	1	23	5
224	1	1	1	1	23	7
225	1	1	1	1	23	9
226	1	1	1	1	23	11
227	1	1	1	1	23	13
228	1	1	1	1	23	15
229	1	1	1	1	23	17
230	1	1	1	1	23	19
231	1	1	1	1	23	21
232	1	1	1	1	23	23
233	1	1	1	1	23	25
234	1	1	1	1	23	27
235	1	1	1	1	23	29
236	1	1	1	1	23	31
237	1	1	1	1	23	33
238	1	1	1	1	23	35
239	1	1	1	1	23	37
240	1	1	1	1	23	39
241	1	1	1	1	25	1
242	1	1	1	1	25	3
243	1	1	1	1	25	5
244	1	1	1	1	25	7
245	1	1	1	1	25	9
246	1	1	1	1	25	11
247	1	1	1	1	25	13
248	1	1	1	1	25	15
249	1	1	1	1	25	17
250	1	1	1	1	25	19
251	1	1	1	1	25	21
252	1	1	1	1	25	23
253	1	1	1	1	25	25
254	1	1	1	1	25	27
255	1	1	1	1	25	29
256	1	1	1	1	25	31
257	1	1	1	1	25	33
258	1	1	1	1	25	35
259	1	1	1	1	25	37
260	1	1	1	1	25	39
261	1	1	1	1	27	1
262	1	1	1	1	27	3
263	1	1	1	1	27	5
264	1	1	1	1	27	7
265	1	1	1	1	27	9
266	1	1	1	1	27	11
267	1	1	1	1	27	13
268	1	1	1	1	27	15
269	1	1	1	1	27	17
270	1	1	1	1	27	19
271	1	1	1	1	27	21
272	1	1	1	1	27	23
273	1	1	1	1	27	25
274	1	1	1	1	27	27
275	1	1	1	1	27	29
276	1	1	1	1	27	31
277	1	1	1	1	27	33
278	1	1	1	1	27	35
279	1	1	1	1	27	37
280	1	1	1	1	27	39
281	1	1	1	1	29	1
282	1	1	1	1	29	3
283	1	1	1	1	29	5
284	1	1	1	1	29	7
285	1	1	1	1	29	9
286	1	1	1	1	29	11
287	1	1	1	1	29	13
288	1	1	1	1	29	15
289	1	1	1	1	29	17
290	1	1	1	1	29	19
291	1	1	1	1	29	21
292	1	1	1	1	29	23
293	1	1	1	1	29	25
294	1	1	1	1	29	27
295	1	1	1	1	29	29
296	1	1	1	1	29	31
297	1	1	1	1	29	33
298	1	1	1	1	29	35
299	1	1	1	1	29	37
300	1	1	1	1	29	39
301	1	1	1	1	31	1
302	1	1	1	1	31	3
303	1	1	1	1	31	5
304	1	1	1	1	31	7
305	1	1	1	1	31	9
306	1	1	1	1	31	11
307	1	1	1	1	31	13
308	1	1	1	1	31	15
309	1	1	1	1	31	17
310	1	1	1	1	31	19
311	1	1	1	1	31	21
312	1	1	1	1	31	23
313	1	1	1	1	31	25
314	1	1	1	1	31	27
315	1	1	1	1	31	29
316	1	1	1	1	31	31
317	1	1	1	1	31	33
318	1	1	1	1	31	35
319	1	1	1	1	31	37
320	1	1	1	1	31	39
321	1	1	1	1	33	1
322	1	1	1	1	33	3
323	1	1	1	1	33	5
324	1	1	1	1	33	7
325	1	1	1	1	33	9
326	1	1	1	1	33	11
327	1	1	1	1	33	13
328	1	1	1	1	33	15
329	1	1	1	1	33	17
330	1	1	1	1	33	19
331	1	1	1	1	33	21
332	1	1	1	1	33	23
333	1	1	1	1	33	25
334	1	1	1	1	33	27
335	1	1	1	1	33	29
336	1	1	1	1	33	31
337	1	1	1	1	33	33
338	1	1	1	1	33	35
339	1	1	1	1	33	37
340	1	1	1	1	33	39
341	1	1	1	1	35	1
342	1	1	1	1	35	3
343	1	1	1	1	35	5
344	1	1	1	1	35	7
345	1	1	1	1	35	9
346	1	1	1	1	35	11
347	1	1	1	1	35	13
348	1	1	1	1	35	15
349	1	1	1	1	35	17
350	1	1	1	1	35	19
351	1	1	1	1	35	21
352	1	1	1	1	35	23
353	1	1	1	1	35	25
354	1	1	1	1	35	27
355	1	1	1	1	35	29
356	1	1	1	1	35	31
357	1	1	1	1	35	33
358	1	1	1	1	35	35
359	1	1	1	1	35	37
360	1	1	1	1	35	39
361	1	1	1	1	37	1
362	1	1	1	1	37	3
363	1	1	1	1	37	5
364	1	1	1	1	37	7
365	1	1	1	1	37	9
366	1	1	1	1	37	11
367	1	1	1	1	37	13
368	1	1	1	1	37	15
369	1	1	1	1	37	17
370	1	1	1	1	37	19
371	1	1	1	1	37	21
372	1	1	1	1	37	23
373	1	1	1	1	37	25
374	1	1	1	1	37	27
375	1	1	1	1	37	29
376	1	1	1	1	37	31
377	1	1	1	1	37	33
378	1	1	1	1	37	35
379	1	1	1	1	37	37
380	1	1	1	1	37	39
381	1	1	1	1	39	1
382	1	1	1	1	39	3
383	1	1	1	1	39	5
384	1	1	1	1	39	7
385	1	1	1	1	39	9
386	1	1	1	1	39	11
387	1	1	1	1	39	13
388	1	1	1	1	39	15
389	1	1	1	1	39	17
390	1	1	1	1	39	19
391	1	1	1	1	39	21
392	1	1	1	1	39	23
393	1	1	1	1	39	25
394	1	1	1	1	39	27
395	1	1	1	1	39	29
396	1	1	1	1	39	31
397	1	1	1	1	39	33
398	1	1	1	1	39	35
399	1	1	1	1	39	37
400	1	1	1	1	39	39
401	1	1	1	3	1	1
402	1	1	1	3	1	3
403	1	1	1	3	1	5
404	1	1	1	3	1	7
405	1	1	1	3	1	9
406	1	1	1	3	1	11
407	1	1	1	3	1	13
408	1	1	1	3	1	15
409	1	1	1	3	1	17
410	1	1	1	3	1	19
411	1	1	1	3	1	21
412	1	1	1	3	1	23
413	1	1	1	3	1	25
414	1	1	1	3	1	27
415	1	1	1	3	1	29
416	1	1	1	3	1	31
417	1	1	1	3	1	33
418	1	1	1	3	1	35
419	1	1	1	3	1	37
420	1	1	1	3	1	39
421	1	1	1	3	3	1
422	1	1	1	3	3	3
423	1	1	1	3	3	5
424	1	1	1	3	3	7
425	1	1	1	3	3	9
426	1	1	1	3	3	11
427	1	1	1	3	3	13
428	1	1	1	3	3	15
429	1	1	1	3	3	17
430	1	1	1	3	3	19
431	1	1	1	3	3	21
432	1	1	1	3	3	23
433	1	1	1	3	3	25
434	1	1	1	3	3	27
435	1	1	1	3	3	29
436	1	1	1	3	3	31
437	1	1	1	3	3	33
438	1	1	1	3	3	35
439	1	1	1	3	3	37
440	1	1	1	3	3	39
441	1	1	1	3	5	1
442	1	1	1	3	5	3
443	1	1	1	3	5	5
444	1	1	1	3	5	7
445	1	1	1	3	5	9
446	1	1	1	3	5	11
447	1	1	1	3	5	13
448	1	1	1	3	5	15
449	1	1	1	3	5	17
450	1	1	1	3	5	19
451	1	1	1	3	5	21
452	1	1	1	3	5	23
453	1	1	1	3	5	25
454	1	1	1	3	5	27
455	1	1	1	3	5	29
456	1	1	1	3	5	31
457	1	1	1	3	5	33
458	1	1	1	3	5	35
459	1	1	1	3	5	37
460	1	1	1	3	5	39
461	1	1	1	3	7	1
462	1	1	1	3	7	3
463	1	1	1	3	7	5
464	1	1	1	3	7	7
465	1	1	1	3	7	9
466	1	1	1	3	7	11
467	1	1	1	3	7	13
468	1	1	1	3	7	15
469	1	1	1	3	7	17
470	1	1	1	3	7	19
471	1	1	1	3	7	21
472	1	1	1	3	7	23
473	1	1	1	3	7	25
474	1	1	1	3	7	27
475	1	1	1	3	7	29
476	1	1	1	3	7	31
477	1	1	1	3	7	33
478	1	1	1	3	7	35
479	1	1	1	3	7	37
480	1	1	1	3	7	39
481	1	1	1	3	9	1
482	1	1	1	3	9	3
483	1	1	1	3	9	5
484	1	1	1	3	9	7
485	1	1	1	3	9	9
486	1	1	1	3	9	11
487	1	1	1	3	9	13
488	1	1	1	3	9	15
489	1	1	1	3	9	17
490	1	1	1	3	9	19
491	1	1	1	3	9	21
492	1	1	1	3	9	23
493	1	1	1	3	9	25
494	1	1	1	3	9	27
495	1	1	1	3	9	29
496	1	1	1	3	9	31
497	1	1	1	3	9	33
498	1	1	1	3	9	35
499	1	1	1	3	9	37
500	1	1	1	3	9	39
501	1	1	1	3	11	1
502	1	1	1	3	11	3
503	1	1	1	3	11	5
504	1	1	1	3	11	7
505	1	1	1	3	11	9
506	1	1	1	3	11	11
507	1	1	1	3	11	13
508	1	1	1	3	11	15
509	1	1	1	3	11	17
510	1	1	1	3	11	19
511	1	1	1	3	11	21
512	1	1	1	3	11	23
513	1	1	1	3	11	25
514	1	1	1	3	11	27
515	1	1	1	3	11	29
516	1	1	1	3	11	31
517	1	1	1	3	11	33
518	1	1	1	3	11	35
519	1	1	1	3	11	37
520	1	1	1	3	11	39
521	1	1	1	3	13	1
522	1	1	1	3	13	3
523	1	1	1	3	13	5
524	1	1	1	3	13	7
525	1	1	1	3	13	9
526	1	1	1	3	13	11
527	1	1	1	3	13	13
528	1	1	1	3	13	15
529	1	1	1	3	13	17
530	1	1	1	3	13	19
531	1	1	1	3	13	21
532	1	1	1	3	13	23
533	1	1	1	3	13	25
534	1	1	1	3	13	27
535	1	1	1	3	13	29
536	1	1	1	3	13	31
537	1	1	1	3	13	33
538	1	1	1	3	13	35
539	1	1	1	3	13	37
540	1	1	1	3	13	39
541	1	1	1	3	15	1
542	1	1	1	3	15	3
543	1	1	1	3	15	5
544	1	1	1	3	15	7
545	1	1	1	3	15	9
546	1	1	1	3	15	11
547	1	1	1	3	15	13
548	1	1	1	3	15	15
549	1	1	1	3	15	17
550	1	1	1	3	15	19
551	1	1	1	3	15	21
552	1	1	1	3	15	23
553	1	1	1	3	15	25
554	1	1	1	3	15	27
555	1	1	1	3	15	29
556	1	1	1	3	15	31
557	1	1	1	3	15	33
558	1	1	1	3	15	35
559	1	1	1	3	15	37
560	1	1	1	3	15	39
561	1	1	1	3	17	1
562	1	1	1	3	17	3
563	1	1	1	3	17	5
564	1	1	1	3	17	7
565	1	1	1	3	17	9
566	1	1	1	3	17	11
567	1	1	1	3	17	13
568	1	1	1	3	17	15
569	1	1	1	3	17	17
570	1	1	1	3	17	19
571	1	1	1	3	17	21
572	1	1	1	3	17	23
573	1	1	1	3	17	25
574	1	1	1	3	17	27
575	1	1	1	3	17	29
576	1	1	1	3	17	31
577	1	1	1	3	17	33
578	1	1	1	3	17	35
579	1	1	1	3	17	37
580	1	1	1	3	17	39
581	1	1	1	3	19	1
582	1	1	1	3	19	3
583	1	1	1	3	19	5
584	1	1	1	3	19	7
585	1	1	1	3	19	9
586	1	1	1	3	19	11
587	1	1	1	3	19	13
588	1	1	1	3	19	15
589	1	1	1	3	19	17
590	1	1	1	3	19	19
591	1	1	1	3	19	21
592	1	1	1	3	19	23
593	1	1	1	3	19	25
594	1	1	1	3	19	27
595	1	1	1	3	19	29
596	1	1	1	3	19	31
597	1	1	1	3	19	33
598	1	1	1	3	19	35
599	1	1	1	3	19	37
600	1	1	1	3	19	39
601	1	1	1	3	21	1
602	1	1	1	3	21	3
603	1	1	1	3	21	5
604	1	1	1	3	21	7
605	1	1	1	3	21	9
606	1	1	1	3	21	11
607	1	1	1	3	21	13
608	1	1	1	3	21	15
609	1	1	1	3	21	17
610	1	1	1	3	21	19
611	1	1	1	3	21	21
612	1	1	1	3	21	23
613	1	1	1	3	21	25
614	1	1	1	3	21	27
615	1	1	1	3	21	29
616	1	1	1	3	21	31
617	1	1	1	3	21	33
618	1	1	1	3	21	35
619	1	1	1	3	21	37
620	1	1	1	3	21	39
621	1	1	1	3	23	1
622	1	1	1	3	23	3
623	1	1	1	3	23	5
624	1	1	1	3	23	7
625	1	1	1	3	23	9
626	1	1	1	3	23	11
627	1	1	1	3	23	13
628	1	1	1	3	23	15
629	1	1	1	3	23	17
630	1	1	1	3	23	19
631	1	1	1	3	23	21
632	1	1	1	3	23	23
633	1	1	1	3	23	25
634	1	1	1	3	23	27
635	1	1	1	3	23	29
636	1	1	1	3	23	31
637	1	1	1	3	23	33
638	1	1	1	3	23	35
639	1	1	1	3	23	37
640	1	1	1	3	23	39
641	1	1	1	3	25	1
642	1	1	1	3	25	3
643	1	1	1	3	25	5
644	1	1	1	3	25	7
645	1	1	1	3	25	9
646	1	1	1	3	25	11
647	1	1	1	3	25	13
648	1	1	1	3	25	15
649	1	1	1	3	25	17
650	1	1	1	3	25	19
651	1	1	1	3	25	21
652	1	1	1	3	25	23
653	1	1	1	3	25	25
654	1	1	1	3	25	27
655	1	1	1	3	25	29
656	1	1	1	3	25	31
657	1	1	1	3	25	33
658	1	1	1	3	25	35
659	1	1	1	3	25	37
660	1	1	1	3	25	39
661	1	1	1	3	27	1
662	1	1	1	3	27	3
663	1	1	1	3	27	5
664	1	1	1	3	27	7
665	1	1	1	3	27	9
666	1	1	1	3	27	11
667	1	1	1	3	27	13
668	1	1	1	3	27	15
669	1	1	1	3	27	17
670	1	1	1	3	27	19
671	1	1	1	3	27	21
672	1	1	1	3	27	23
673	1	1	1	3	27	25
674	1	1	1	3	27	27
675	1	1	1	3	27	29
676	1	1	1	3	27	31
677	1	1	1	3	27	33
678	1	1	1	3	27	35
679	1	1	1	3	27	37
680	1	1	1	3	27	39
681	1	1	1	3	29	1
682	1	1	1	3	29	3
683	1	1	1	3	29	5
684	1	1	1	3	29	7
685	1	1	1	3	29	9
686	1	1	1	3	29	11
687	1	1	1	3	29	13
688	1	1	1	3	29	15
689	1	1	1	3	29	17
690	1	1	1	3	29	19
691	1	1	1	3	29	21
692	1	1	1	3	29	23
693	1	1	1	3	29	25
694	1	1	1	3	29	27
695	1	1	1	3	29	29
696	1	1	1	3	29	31
697	1	1	1	3	29	33
698	1	1	1	3	29	35
699	1	1	1	3	29	37
700	1	1	1	3	29	39
701	1	1	1	3	31	1
702	1	1	1	3	31	3
703	1	1	1	3	31	5
704	1	1	1	3	31	7
705	1	1	1	3	31	9
706	1	1	1	3	31	11
707	1	1	1	3	31	13
708	1	1	1	3	31	15
709	1	1	1	3	31	17
710	1	1	1	3	31	19
711	1	1	1	3	31	21
712	1	1	1	3	31	23
713	1	1	1	3	31	25
714	1	1	1	3	31	27
715	1	1	1	3	31	29
716	1	1	1	3	31	31
717	1	1	1	3	31	33
718	1	1	1	3	31	35
719	1	1	1	3	31	37
720	1	1	1	3	31	39
721	1	1	1	3	33	1
722	1	1	1	3	33	3
723	1	1	1	3	33	5
724	1	1	1	3	33	7
725	1	1	1	3	33	9
726	1	1	1	3	33	11
727	1	1	1	3	33	13
728	1	1	1	3	33	15
729	1	1	1	3	33	17
730	1	1	1	3	33	19
731	1	1	1	3	33	21
732	1	1	1	3	33	23
733	1	1	1	3	33	25
734	1	1	1	3	33	27
735	1	1	1	3	33	29
736	1	1	1	3	33	31
737	1	1	1	3	33	33
738	1	1	1	3	33	35
739	1	1	1	3	33	37
740	1	1	1	3	33	39
741	1	1	1	3	35	1
742	1	1	1	3	35	3
743	1	1	1	3	35	5
744	1	1	1	3	35	7
745	1	1	1	3	35	9
746	1	1	1	3	35	11
747	1	1	1	3	35	13
748	1	1	1	3	35	15
749	1	1	1	3	35	17
750	1	1	1	3	35	19
751	1	1	1	3	35	21
752	1	1	1	3	35	23
753	1	1	1	3	35	25
754	1	1	1	3	35	27
755	1	1	1	3	35	29
756	1	1	1	3	35	31
757	1	1	1	3	35	33
758	1	1	1	3	35	35
759	1	1	1	3	35	37
760	1	1	1	3	35	39
761	1	1	1	3	37	1
762	1	1	1	3	37	3
763	1	1	1	3	37	5
764	1	1	1	3	37	7
765	1	1	1	3	37	9
766	1	1	1	3	37	11
767	1	1	1	3	37	13
768	1	1	1	3	37	15
769	1	1	1	3	37	17
770	1	1	1	3	37	19
771	1	1	1	3	37	21
772	1	1	1	3	37	23
773	1	1	1	3	37	25
774	1	1	1	3	37	27
775	1	1	1	3	37	29
776	1	1	1	3	37	31
777	1	1	1	3	37	33
778	1	1	1	3	37	35
779	1	1	1	3	37	37
780	1	1	1	3	37	39
781	1	1	1	3	39	1
782	1	1	1	3	39	3
783	1	1	1	3	39	5
784	1	1	1	3	39	7
785	1	1	1	3	39	9
786	1	1	1	3	39	11
787	1	1	1	3	39	13
788	1	1	1	3	39	15
789	1	1	1	3	39	17
790	1	1	1	3	39	19
791	1	1	1	3	39	21
792	1	1	1	3	39	23
793	1	1	1	3	39	25
794	1	1	1	3	39	27
795	1	1	1	3	39	29
796	1	1	1	3	39	31
797	1	1	1	3	39	33
798	1	1	1	3	39	35
799	1	1	1	3	39	37
800	1	1	1	3	39	39
801	1	1	1	5	1	1
802	1	1	1	5	1	3
803	1	1	1	5	1	5
804	1	1	1	5	1	7
805	1	1	1	5	1	9
806	1	1	1	5	1	11
807	1	1	1	5	1	13
808	1	1	1	5	1	15
809	1	1	1	5	1	17
810	1	1	1	5	1	19
811	1	1	1	5	1	21
812	1	1	1	5	1	23
813	1	1	1	5	1	25
814	1	1	1	5	1	27
815	1	1	1	5	1	29
816	1	1	1	5	1	31
817	1	1	1	5	1	33
818	1	1	1	5	1	35
819	1	1	1	5	1	37
820	1	1	1	5	1	39
821	1	1	1	5	3	1
822	1	1	1	5	3	3
823	1	1	1	5	3	5
824	1	1	1	5	3	7
825	1	1	1	5	3	9
826	1	1	1	5	3	11
827	1	1	1	5	3	13
828	1	1	1	5	3	15
829	1	1	1	5	3	17
830	1	1	1	5	3	19
831	1	1	1	5	3	21
832	1	1	1	5	3	23
833	1	1	1	5	3	25
834	1	1	1	5	3	27
835	1	1	1	5	3	29
836	1	1	1	5	3	31
837	1	1	1	5	3	33
838	1	1	1	5	3	35
839	1	1	1	5	3	37
840	1	1	1	5	3	39
841	1	1	1	5	5	1
842	1	1	1	5	5	3
843	1	1	1	5	5	5
844	1	1	1	5	5	7
845	1	1	1	5	5	9
846	1	1	1	5	5	11
847	1	1	1	5	5	13
848	1	1	1	5	5	15
849	1	1	1	5	5	17
850	1	1	1	5	5	19
851	1	1	1	5	5	21
852	1	1	1	5	5	23
853	1	1	1	5	5	25
854	1	1	1	5	5	27
855	1	1	1	5	5	29
856	1	1	1	5	5	31
857	1	1	1	5	5	33
858	1	1	1	5	5	35
859	1	1	1	5	5	37
860	1	1	1	5	5	39
861	1	1	1	5	7	1
862	1	1	1	5	7	3
863	1	1	1	5	7	5
864	1	1	1	5	7	7
865	1	1	1	5	7	9
866	1	1	1	5	7	11
867	1	1	1	5	7	13
868	1	1	1	5	7	15
869	1	1	1	5	7	17
870	1	1	1	5	7	19
871	1	1	1	5	7	21
872	1	1	1	5	7	23
873	1	1	1	5	7	25
874	1	1	1	5	7	27
875	1	1	1	5	7	29
876	1	1	1	5	7	31
877	1	1	1	5	7	33
878	1	1	1	5	7	35
879	1	1	1	5	7	37
880	1	1	1	5	7	39
881	1	1	1	5	9	1
882	1	1	1	5	9	3
883	1	1	1	5	9	5
884	1	1	1	5	9	7
885	1	1	1	5	9	9
886	1	1	1	5	9	11
887	1	1	1	5	9	13
888	1	1	1	5	9	15
889	1	1	1	5	9	17
890	1	1	1	5	9	19
891	1	1	1	5	9	21
892	1	1	1	5	9	23
893	1	1	1	5	9	25
894	1	1	1	5	9	27
895	1	1	1	5	9	29
896	1	1	1	5	9	31
897	1	1	1	5	9	33
898	1	1	1	5	9	35
899	1	1	1	5	9	37
900	1	1	1	5	9	39
901	1	1	1	5	11	1
902	1	1	1	5	11	3
903	1	1	1	5	11	5
904	1	1	1	5	11	7
905	1	1	1	5	11	9
906	1	1	1	5	11	11
907	1	1	1	5	11	13
908	1	1	1	5	11	15
909	1	1	1	5	11	17
910	1	1	1	5	11	19
911	1	1	1	5	11	21
912	1	1	1	5	11	23
913	1	1	1	5	11	25
914	1	1	1	5	11	27
915	1	1	1	5	11	29
916	1	1	1	5	11	31
917	1	1	1	5	11	33
918	1	1	1	5	11	35
919	1	1	1	5	11	37
920	1	1	1	5	11	39
921	1	1	1	5	13	1
922	1	1	1	5	13	3
923	1	1	1	5	13	5
924	1	1	1	5	13	7
925	1	1	1	5	13	9
926	1	1	1	5	13	11
927	1	1	1	5	13	13
928	1	1	1	5	13	15
929	1	1	1	5	13	17
930	1	1	1	5	13	19
931	1	1	1	5	13	21
932	1	1	1	5	13	23
933	1	1	1	5	13	25
934	1	1	1	5	13	27
935	1	1	1	5	13	29
936	1	1	1	5	13	31
937	1	1	1	5	13	33
938	1	1	1	5	13	35
939	1	1	1	5	13	37
940	1	1	1	5	13	39
941	1	1	1	5	15	1
942	1	1	1	5	15	3
943	1	1	1	5	15	5
944	1	1	1	5	15	7
945	1	1	1	5	15	9
946	1	1	1	5	15	11
947	1	1	1	5	15	13
948	1	1	1	5	15	15
949	1	1	1	5	15	17
950	1	1	1	5	15	19
951	1	1	1	5	15	21
952	1	1	1	5	15	23
953	1	1	1	5	15	25
954	1	1	1	5	15	27
955	1	1	1	5	15	29
956	1	1	1	5	15	31
957	1	1	1	5	15	33
958	1	1	1	5	15	35
959	1	1	1	5	15	37
960	1	1	1	5	15	39
961	1	1	1	5	17	1
962	1	1	1	5	17	3
963	1	1	1	5	17	5
964	1	1	1	5	17	7
965	1	1	1	5	17	9
966	1	1	1	5	17	11
967	1	1	1	5	17	13
968	1	1	1	5	17	15
969	1	1	1	5	17	17
970	1	1	1	5	17	19
971	1	1	1	5	17	21
972	1	1	1	5	17	23
973	1	1	1	5	17	25
974	1	1	1	5	17	27
975	1	1	1	5	17	29
976	1	1	1	5	17	31
977	1	1	1	5	17	33
978	1	1	1	5	17	35
979	1	1	1	5	17	37
980	1	1	1	5	17	39
981	1	1	1	5	19	1
982	1	1	1	5	19	3
983	1	1	1	5	19	5
984	1	1	1	5	19	7
985	1	1	1	5	19	9
986	1	1	1	5	19	11
987	1	1	1	5	19	13
988	1	1	1	5	19	15
989	1	1	1	5	19	17
990	1	1	1	5	19	19
991	1	1	1	5	19	21
992	1	1	1	5	19	23
993	1	1	1	5	19	25
994	1	1	1	5	19	27
995	1	1	1	5	19	29
996	1	1	1	5	19	31
997	1	1	1	5	19	33
998	1	1	1	5	19	35
999	1	1	1	5	19	37
1000	1	1	1	5	19	39
1001	1	1	1	5	21	1
1002	1	1	1	5	21	3
1003	1	1	1	5	21	5
1004	1	1	1	5	21	7
1005	1	1	1	5	21	9
1006	1	1	1	5	21	11
1007	1	1	1	5	21	13
1008	1	1	1	5	21	15
1009	1	1	1	5	21	17
1010	1	1	1	5	21	19
1011	1	1	1	5	21	21
1012	1	1	1	5	21	23
1013	1	1	1	5	21	25
1014	1	1	1	5	21	27
1015	1	1	1	5	21	29
1016	1	1	1	5	21	31
1017	1	1	1	5	21	33
1018	1	1	1	5	21	35
1019	1	1	1	5	21	37
1020	1	1	1	5	21	39
1021	1	1	1	5	23	1
1022	1	1	1	5	23	3
1023	1	1	1	5	23	5
1024	1	1	1	5	23	7
1025	1	1	1	5	23	9
1026	1	1	1	5	23	11
1027	1	1	1	5	23	13
1028	1	1	1	5	23	15
1029	1	1	1	5	23	17
1030	1	1	1	5	23	19
1031	1	1	1	5	23	21
1032	1	1	1	5	23	23
1033	1	1	1	5	23	25
1034	1	1	1	5	23	27
1035	1	1	1	5	23	29
1036	1	1	1	5	23	31
1037	1	1	1	5	23	33
1038	1	1	1	5	23	35
1039	1	1	1	5	23	37
1040	1	1	1	5	23	39
1041	1	1	1	5	25	1
1042	1	1	1	5	25	3
1043	1	1	1	5	25	5
1044	1	1	1	5	25	7
1045	1	1	1	5	25	9
1046	1	1	1	5	25	11
1047	1	1	1	5	25	13
1048	1	1	1	5	25	15
1049	1	1	1	5	25	17
1050	1	1	1	5	25	19
1051	1	1	1	5	25	21
1052	1	1	1	5	25	23
1053	1	1	1	5	25	25
1054	1	1	1	5	25	27
1055	1	1	1	5	25	29
1056	1	1	1	5	25	31
1057	1	1	1	5	25	33
1058	1	1	1	5	25	35
1059	1	1	1	5	25	37
1060	1	1	1	5	25	39
1061	1	1	1	5	27	1
1062	1	1	1	5	27	3
1063	1	1	1	5	27	5
1064	1	1	1	5	27	7
1065	1	1	1	5	27	9
1066	1	1	1	5	27	11
1067	1	1	1	5	27	13
1068	1	1	1	5	27	15
1069	1	1	1	5	27	17
1070	1	1	1	5	27	19
1071	1	1	1	5	27	21
1072	1	1	1	5	27	23
1073	1	1	1	5	27	25
1074	1	1	1	5	27	27
1075	1	1	1	5	27	29
1076	1	1	1	5	27	31
1077	1	1	1	5	27	33
1078	1	1	1	5	27	35
1079	1	1	1	5	27	37
1080	1	1	1	5	27	39
1081	1	1	1	5	29	1
1082	1	1	1	5	29	3
1083	1	1	1	5	29	5
1084	1	1	1	5	29	7
1085	1	1	1	5	29	9
1086	1	1	1	5	29	11
1087	1	1	1	5	29	13
1088	1	1	1	5	29	15
1089	1	1	1	5	29	17
1090	1	1	1	5	29	19
1091	1	1	1	5	29	21
1092	1	1	1	5	29	23
1093	1	1	1	5	29	25
1094	1	1	1	5	29	27
1095	1	1	1	5	29	29
1096	1	1	1	5	29	31
1097	1	1	1	5	29	33
1098	1	1	1	5	29	35
1099	1	1	1	5	29	37
1100	1	1	1	5	29	39
1101	1	1	1	5	31	1
1102	1	1	1	5	31	3
1103	1	1	1	5	31	5
1104	1	1	1	5	31	7
1105	1	1	1	5	31	9
1106	1	1	1	5	31	11
1107	1	1	1	5	31	13
1108	1	1	1	5	31	15
1109	1	1	1	5	31	17
1110	1	1	1	5	31	19
1111	1	1	1	5	31	21
1112	1	1	1	5	31	23
1113	1	1	1	5	31	25
1114	1	1	1	5	31	27
1115	1	1	1	5	31	29
1116	1	1	1	5	31	31
1117	1	1	1	5	31	33
1118	1	1	1	5	31	35
1119	1	1	1	5	31	37
1120	1	1	1	5	31	39
1121	1	1	1	5	33	1
1122	1	1	1	5	33	3
1123	1	1	1	5	33	5
1124	1	1	1	5	33	7
1125	1	1	1	5	33	9
1126	1	1	1	5	33	11
1127	1	1	1	5	33	13
1128	1	1	1	5	33	15
1129	1	1	1	5	33	17
1130	1	1	1	5	33	19
1131	1	1	1	5	33	21
1132	1	1	1	5	33	23
1133	1	1	1	5	33	25
1134	1	1	1	5	33	27
1135	1	1	1	5	33	29
1136	1	1	1	5	33	31
1137	1	1	1	5	33	33
1138	1	1	1	5	33	35
1139	1	1	1	5	33	37
1140	1	1	1	5	33	39
1141	1	1	1	5	35	1
1142	1	1	1	5	35	3
1143	1	1	1	5	35	5
1144	1	1	1	5	35	7
1145	1	1	1	5	35	9
1146	1	1	1	5	35	11
1147	1	1	1	5	35	13
1148	1	1	1	5	35	15
1149	1	1	1	5	35	17
1150	1	1	1	5	35	19
1151	1	1	1	5	35	21
1152	1	1	1	5	35	23
1153	1	1	1	5	35	25
1154	1	1	1	5	35	27
1155	1	1	1	5	35	29
1156	1	1	1	5	35	31
1157	1	1	1	5	35	33
1158	1	1	1	5	35	35
1159	1	1	1	5	35	37
1160	1	1	1	5	35	39
1161	1	1	1	5	37	1
1162	1	1	1	5	37	3
1163	1	1	1	5	37	5
1164	1	1	1	5	37	7
1165	1	1	1	5	37	9
1166	1	1	1	5	37	11
1167	1	1	1	5	37	13
1168	1	1	1	5	37	15
1169	1	1	1	5	37	17
1170	1	1	1	5	37	19
1171	1	1	1	5	37	21
1172	1	1	1	5	37	23
1173	1	1	1	5	37	25
1174	1	1	1	5	37	27
1175	1	1	1	5	37	29
1176	1	1	1	5	37	31
1177	1	1	1	5	37	33
1178	1	1	1	5	37	35
1179	1	1	1	5	37	37
1180	1	1	1	5	37	39
1181	1	1	1	5	39	1
1182	1	1	1	5	39	3
1183	1	1	1	5	39	5
1184	1	1	1	5	39	7
1185	1	1	1	5	39	9
1186	1	1	1	5	39	11
1187	1	1	1	5	39	13
1188	1	1	1	5	39	15
1189	1	1	1	5	39	17
1190	1	1	1	5	39	19
1191	1	1	1	5	39	21
1192	1	1	1	5	39	23
1193	1	1	1	5	39	25
1194	1	1	1	5	39	27
1195	1	1	1	5	39	29
1196	1	1	1	5	39	31
1197	1	1	1	5	39	33
1198	1	1	1	5	39	35
1199	1	1	1	5	39	37
1200	1	1	1	5	39	39
1201	1	1	1	7	1	1
1202	1	1	1	7	1	3
1203	1	1	1	7	1	5
1204	1	1	1	7	1	7
1205	1	1	1	7	1	9
1206	1	1	1	7	1	11
1207	1	1	1	7	1	13
1208	1	1	1	7	1	15
1209	1	1	1	7	1	17
1210	1	1	1	7	1	19
1211	1	1	1	7	1	21
1212	1	1	1	7	1	23
1213	1	1	1	7	1	25
1214	1	1	1	7	1	27
1215	1	1	1	7	1	29
1216	1	1	1	7	1	31
1217	1	1	1	7	1	33
1218	1	1	1	7	1	35
1219	1	1	1	7	1	37
1220	1	1	1	7	1	39
1221	1	1	1	7	3	1
1222	1	1	1	7	3	3
1223	1	1	1	7	3	5
1224	1	1	1	7	3	7
1225	1	1	1	7	3	9
1226	1	1	1	7	3	11
1227	1	1	1	7	3	13
1228	1	1	1	7	3	15
1229	1	1	1	7	3	17
1230	1	1	1	7	3	19
1231	1	1	1	7	3	21
1232	1	1	1	7	3	23
1233	1	1	1	7	3	25
1234	1	1	1	7	3	27
1235	1	1	1	7	3	29
1236	1	1	1	7	3	31
1237	1	1	1	7	3	33
1238	1	1	1	7	3	35
1239	1	1	1	7	3	37
1240	1	1	1	7	3	39
1241	1	1	1	7	5	1
1242	1	1	1	7	5	3
1243	1	1	1	7	5	5
1244	1	1	1	7	5	7
1245	1	1	1	7	5	9
1246	1	1	1	7	5	11
1247	1	1	1	7	5	13
1248	1	1	1	7	5	15
1249	1	1	1	7	5	17
1250	1	1	1	7	5	19
1251	1	1	1	7	5	21
1252	1	1	1	7	5	23
1253	1	1	1	7	5	25
1254	1	1	1	7	5	27
1255	1	1	1	7	5	29
1256	1	1	1	7	5	31
1257	1	1	1	7	5	33
1258	1	1	1	7	5	35
1259	1	1	1	7	5	37
1260	1	1	1	7	5	39
1261	1	1	1	7	7	1
1262	1	1	1	7	7	3
1263	1	1	1	7	7	5
1264	1	1	1	7	7	7
1265	1	1	1	7	7	9
1266	1	1	1	7	7	11
1267	1	1	1	7	7	13
1268	1	1	1	7	7	15
1269	1	1	1	7	7	17
1270	1	1	1	7	7	19
1271	1	1	1	7	7	21
1272	1	1	1	7	7	23
1273	1	1	1	7	7	25
1274	1	1	1	7	7	27
1275	1	1	1	7	7	29
1276	1	1	1	7	7	31
1277	1	1	1	7	7	33
1278	1	1	1	7	7	35
1279	1	1	1	7	7	37
1280	1	1	1	7	7	39
1281	1	1	1	7	9	1
1282	1	1	1	7	9	3
1283	1	1	1	7	9	5
1284	1	1	1	7	9	7
1285	1	1	1	7	9	9
1286	1	1	1	7	9	11
1287	1	1	1	7	9	13
1288	1	1	1	7	9	15
1289	1	1	1	7	9	17
1290	1	1	1	7	9	19
1291	1	1	1	7	9	21
1292	1	1	1	7	9	23
1293	1	1	1	7	9	25
1294	1	1	1	7	9	27
1295	1	1	1	7	9	29
1296	1	1	1	7	9	31
1297	1	1	1	7	9	33
1298	1	1	1	7	9	35
1299	1	1	1	7	9	37
1300	1	1	1	7	9	39
1301	1	1	1	7	11	1
1302	1	1	1	7	11	3
1303	1	1	1	7	11	5
1304	1	1	1	7	11	7
1305	1	1	1	7	11	9
1306	1	1	1	7	11	11
1307	1	1	1	7	11	13
1308	1	1	1	7	11	15
1309	1	1	1	7	11	17
1310	1	1	1	7	11	19
1311	1	1	1	7	11	21
1312	1	1	1	7	11	23
1313	1	1	1	7	11	25
1314	1	1	1	7	11	27
1315	1	1	1	7	11	29
1316	1	1	1	7	11	31
1317	1	1	1	7	11	33
1318	1	1	1	7	11	35
1319	1	1	1	7	11	37
1320	1	1	1	7	11	39
1321	1	1	1	7	13	1
1322	1	1	1	7	13	3
1323	1	1	1	7	13	5
1324	1	1	1	7	13	7
1325	1	1	1	7	13	9
1326	1	1	1	7	13	11
1327	1	1	1	7	13	13
1328	1	1	1	7	13	15
1329	1	1	1	7	13	17
1330	1	1	1	7	13	19
1331	1	1	1	7	13	21
1332	1	1	1	7	13	23
1333	1	1	1	7	13	25
1334	1	1	1	7	13	27
1335	1	1	1	7	13	29
1336	1	1	1	7	13	31
1337	1	1	1	7	13	33
1338	1	1	1	7	13	35
1339	1	1	1	7	13	37
1340	1	1	1	7	13	39
1341	1	1	1	7	15	1
1342	1	1	1	7	15	3
1343	1	1	1	7	15	5
1344	1	1	1	7	15	7
1345	1	1	1	7	15	9
1346	1	1	1	7	15	11
1347	1	1	1	7	15	13
1348	1	1	1	7	15	15
1349	1	1	1	7	15	17
1350	1	1	1	7	15	19
1351	1	1	1	7	15	21
1352	1	1	1	7	15	23
1353	1	1	1	7	15	25
1354	1	1	1	7	15	27
1355	1	1	1	7	15	29
1356	1	1	1	7	15	31
1357	1	1	1	7	15	33
1358	1	1	1	7	15	35
1359	1	1	1	7	15	37
1360	1	1	1	7	15	39
1361	1	1	1	7	17	1
1362	1	1	1	7	17	3
1363	1	1	1	7	17	5
1364	1	1	1	7	17	7
1365	1	1	1	7	17	9
1366	1	1	1	7	17	11
1367	1	1	1	7	17	13
1368	1	1	1	7	17	15
1369	1	1	1	7	17	17
1370	1	1	1	7	17	19
1371	1	1	1	7	17	21
1372	1	1	1	7	17	23
1373	1	1	1	7	17	25
1374	1	1	1	7	17	27
1375	1	1	1	7	17	29
1376	1	1	1	7	17	31
1377	1	1	1	7	17	33
1378	1	1	1	7	17	35
1379	1	1	1	7	17	37
1380	1	1	1	7	17	39
1381	1	1	1	7	19	1
1382	1	1	1	7	19	3
1383	1	1	1	7	19	5
1384	1	1	1	7	19	7
1385	1	1	1	7	19	9
1386	1	1	1	7	19	11
1387	1	1	1	7	19	13
1388	1	1	1	7	19	15
1389	1	1	1	7	19	17
1390	1	1	1	7	19	19
1391	1	1	1	7	19	21
1392	1	1	1	7	19	23
1393	1	1	1	7	19	25
1394	1	1	1	7	19	27
1395	1	1	1	7	19	29
1396	1	1	1	7	19	31
1397	1	1	1	7	19	33
1398	1	1	1	7	19	35
1399	1	1	1	7	19	37
1400	1	1	1	7	19	39
1401	1	1	1	7	21	1
1402	1	1	1	7	21	3
1403	1	1	1	7	21	5
1404	1	1	1	7	21	7
1405	1	1	1	7	21	9
1406	1	1	1	7	21	11
1407	1	1	1	7	21	13
1408	1	1	1	7	21	15
1409	1	1	1	7	21	17
1410	1	1	1	7	21	19
1411	1	1	1	7	21	21
1412	1	1	1	7	21	23
1413	1	1	1	7	21	25
1414	1	1	1	7	21	27
1415	1	1	1	7	21	29
1416	1	1	1	7	21	31
1417	1	1	1	7	21	33
1418	1	1	1	7	21	35
1419	1	1	1	7	21	37
1420	1	1	1	7	21	39
1421	1	1	1	7	23	1
1422	1	1	1	7	23	3
1423	1	1	1	7	23	5
1424	1	1	1	7	23	7
1425	1	1	1	7	23	9
1426	1	1	1	7	23	11
1427	1	1	1	7	23	13
1428	1	1	1	7	23	15
1429	1	1	1	7	23	17
1430	1	1	1	7	23	19
1431	1	1	1	7	23	21
1432	1	1	1	7	23	23
1433	1	1	1	7	23	25
1434	1	1	1	7	23	27
1435	1	1	1	7	23	29
1436	1	1	1	7	23	31
1437	1	1	1	7	23	33
1438	1	1	1	7	23	35
1439	1	1	1	7	23	37
1440	1	1	1	7	23	39
1441	1	1	1	7	25	1
1442	1	1	1	7	25	3
1443	1	1	1	7	25	5
1444	1	1	1	7	25	7
1445	1	1	1	7	25	9
1446	1	1	1	7	25	11
1447	1	1	1	7	25	13
1448	1	1	1	7	25	15
1449	1	1	1	7	25	17
1450	1	1	1	7	25	19
1451	1	1	1	7	25	21
1452	1	1	1	7	25	23
1453	1	1	1	7	25	25
1454	1	1	1	7	25	27
1455	1	1	1	7	25	29
1456	1	1	1	7	25	31
1457	1	1	1	7	25	33
1458	1	1	1	7	25	35
1459	1	1	1	7	25	37
1460	1	1	1	7	25	39
1461	1	1	1	7	27	1
1462	1	1	1	7	27	3
1463	1	1	1	7	27	5
1464	1	1	1	7	27	7
1465	1	1	1	7	27	9
1466	1	1	1	7	27	11
1467	1	1	1	7	27	13
1468	1	1	1	7	27	15
1469	1	1	1	7	27	17
1470	1	1	1	7	27	19
1471	1	1	1	7	27	21
1472	1	1	1	7	27	23
1473	1	1	1	7	27	25
1474	1	1	1	7	27	27
1475	1	1	1	7	27	29
1476	1	1	1	7	27	31
1477	1	1	1	7	27	33
1478	1	1	1	7	27	35
1479	1	1	1	7	27	37
1480	1	1	1	7	27	39
1481	1	1	1	7	29	1
1482	1	1	1	7	29	3
1483	1	1	1	7	29	5
1484	1	1	1	7	29	7
1485	1	1	1	7	29	9
1486	1	1	1	7	29	11
1487	1	1	1	7	29	13
1488	1	1	1	7	29	15
1489	1	1	1	7	29	17
1490	1	1	1	7	29	19
1491	1	1	1	7	29	21
1492	1	1	1	7	29	23
1493	1	1	1	7	29	25
1494	1	1	1	7	29	27
1495	1	1	1	7	29	29
1496	1	1	1	7	29	31
1497	1	1	1	7	29	33
1498	1	1	1	7	29	35
1499	1	1	1	7	29	37
1500	1	1	1	7	29	39
1501	1	1	1	7	31	1
1502	1	1	1	7	31	3
1503	1	1	1	7	31	5
1504	1	1	1	7	31	7
1505	1	1	1	7	31	9
1506	1	1	1	7	31	11
1507	1	1	1	7	31	13
1508	1	1	1	7	31	15
1509	1	1	1	7	31	17
1510	1	1	1	7	31	19
1511	1	1	1	7	31	21
1512	1	1	1	7	31	23
1513	1	1	1	7	31	25
1514	1	1	1	7	31	27
1515	1	1	1	7	31	29
1516	1	1	1	7	31	31
1517	1	1	1	7	31	33
1518	1	1	1	7	31	35
1519	1	1	1	7	31	37
1520	1	1	1	7	31	39
1521	1	1	1	7	33	1
1522	1	1	1	7	33	3
1523	1	1	1	7	33	5
1524	1	1	1	7	33	7
1525	1	1	1	7	33	9
1526	1	1	1	7	33	11
1527	1	1	1	7	33	13
1528	1	1	1	7	33	15
1529	1	1	1	7	33	17
1530	1	1	1	7	33	19
1531	1	1	1	7	33	21
1532	1	1	1	7	33	23
1533	1	1	1	7	33	25
1534	1	1	1	7	33	27
1535	1	1	1	7	33	29
1536	1	1	1	7	33	31
1537	1	1	1	7	33	33
1538	1	1	1	7	33	35
1539	1	1	1	7	33	37
1540	1	1	1	7	33	39
1541	1	1	1	7	35	1
1542	1	1	1	7	35	3
1543	1	1	1	7	35	5
1544	1	1	1	7	35	7
1545	1	1	1	7	35	9
1546	1	1	1	7	35	11
1547	1	1	1	7	35	13
1548	1	1	1	7	35	15
1549	1	1	1	7	35	17
1550	1	1	1	7	35	19
1551	1	1	1	7	35	21
1552	1	1	1	7	35	23
1553	1	1	1	7	35	25
1554	1	1	1	7	35	27
1555	1	1	1	7	35	29
1556	1	1	1	7	35	31
1557	1	1	1	7	35	33
1558	1	1	1	7	35	35
1559	1	1	1	7	35	37
1560	1	1	1	7	35	39
1561	1	1	1	7	37	1
1562	1	1	1	7	37	3
1563	1	1	1	7	37	5
1564	1	1	1	7	37	7
1565	1	1	1	7	37	9
1566	1	1	1	7	37	11
1567	1	1	1	7	37	13
1568	1	1	1	7	37	15
1569	1	1	1	7	37	17
1570	1	1	1	7	37	19
1571	1	1	1	7	37	21
1572	1	1	1	7	37	23
1573	1	1	1	7	37	25
1574	1	1	1	7	37	27
1575	1	1	1	7	37	29
1576	1	1	1	7	37	31
1577	1	1	1	7	37	33
1578	1	1	1	7	37	35
1579	1	1	1	7	37	37
1580	1	1	1	7	37	39
1581	1	1	1	7	39	1
1582	1	1	1	7	39	3
1583	1	1	1	7	39	5
1584	1	1	1	7	39	7
1585	1	1	1	7	39	9
1586	1	1	1	7	39	11
1587	1	1	1	7	39	13
1588	1	1	1	7	39	15
1589	1	1	1	7	39	17
1590	1	1	1	7	39	19
1591	1	1	1	7	39	21
1592	1	1	1	7	39	23
1593	1	1	1	7	39	25
1594	1	1	1	7	39	27
1595	1	1	1	7	39	29
1596	1	1	1	7	39	31
1597	1	1	1	7	39	33
1598	1	1	1	7	39	35
1599	1	1	1	7	39	37
1600	1	1	1	7	39	39
1601	1	1	1	9	1	1
1602	1	1	1	9	1	3
1603	1	1	1	9	1	5
1604	1	1	1	9	1	7
1605	1	1	1	9	1	9
1606	1	1	1	9	1	11
1607	1	1	1	9	1	13
1608	1	1	1	9	1	15
1609	1	1	1	9	1	17
1610	1	1	1	9	1	19
1611	1	1	1	9	1	21
1612	1	1	1	9	1	23
1613	1	1	1	9	1	25
1614	1	1	1	9	1	27
1615	1	1	1	9	1	29
1616	1	1	1	9	1	31
1617	1	1	1	9	1	33
1618	1	1	1	9	1	35
1619	1	1	1	9	1	37
1620	1	1	1	9	1	39
1621	1	1	1	9	3	1
1622	1	1	1	9	3	3
1623	1	1	1	9	3	5
1624	1	1	1	9	3	7
1625	1	1	1	9	3	9
1626	1	1	1	9	3	11
1627	1	1	1	9	3	13
1628	1	1	1	9	3	15
1629	1	1	1	9	3	17
1630	1	1	1	9	3	19
1631	1	1	1	9	3	21
1632	1	1	1	9	3	23
1633	1	1	1	9	3	25
1634	1	1	1	9	3	27
1635	1	1	1	9	3	29
1636	1	1	1	9	3	31
1637	1	1	1	9	3	33
1638	1	1	1	9	3	35
1639	1	1	1	9	3	37
1640	1	1	1	9	3	39
1641	1	1	1	9	5	1
1642	1	1	1	9	5	3
1643	1	1	1	9	5	5
1644	1	1	1	9	5	7
1645	1	1	1	9	5	9
1646	1	1	1	9	5	11
1647	1	1	1	9	5	13
1648	1	1	1	9	5	15
1649	1	1	1	9	5	17
1650	1	1	1	9	5	19
1651	1	1	1	9	5	21
1652	1	1	1	9	5	23
1653	1	1	1	9	5	25
1654	1	1	1	9	5	27
1655	1	1	1	9	5	29
1656	1	1	1	9	5	31
1657	1	1	1	9	5	33
1658	1	1	1	9	5	35
1659	1	1	1	9	5	37
1660	1	1	1	9	5	39
1661	1	1	1	9	7	1
1662	1	1	1	9	7	3
1663	1	1	1	9	7	5
1664	1	1	1	9	7	7
1665	1	1	1	9	7	9
1666	1	1	1	9	7	11
1667	1	1	1	9	7	13
1668	1	1	1	9	7	15
1669	1	1	1	9	7	17
1670	1	1	1	9	7	19
1671	1	1	1	9	7	21
1672	1	1	1	9	7	23
1673	1	1	1	9	7	25
1674	1	1	1	9	7	27
1675	1	1	1	9	7	29
1676	1	1	1	9	7	31