LAMMPS (24 Dec 2020)
OMP_NUM_THREADS environment is not set. Defaulting to 1 thread. (src/comm.cpp:94)
  using 1 OpenMP thread(s) per MPI task
Created orthogonal box = (0.0000000 0.0000000 0.0000000) to (100.00000 100.00000 200.00000)
  3 by 2 by 8 MPI processor grid
Lattice spacing in x,y,z = 1.1485556 1.1485556 1.1485556
Created 867328 atoms
  create_atoms CPU = 0.013 seconds
Lattice spacing in x,y,z = 2.8114422 2.8114422 2.8114422
Created 31104 atoms
  create_atoms CPU = 0.007 seconds
898432 atoms in group solvent
System init for delete_atoms ...
Neighbor list info ...
  update every 1 steps, delay 10 steps, check yes
  max neighbors/atom: 2000, page size: 100000
  master list distance cutoff = 2.9
  ghost atom cutoff = 2.9
  binsize = 1.45, bins = 69 69 138
  2 neighbor lists, perpetual/occasional/extra = 1 1 0
  (1) command delete_atoms, occasional
      attributes: full, newton on
      pair build: full/bin
      stencil: full/bin/3d
      bin: standard
  (2) pair lj/cut/opt, perpetual
      attributes: half, newton on
      pair build: half/bin/newton
      stencil: half/bin/3d/newton
      bin: standard
WARNING: Ignoring 'compress yes' for molecular system (src/delete_atoms.cpp:125)
Deleted 19600 atoms, new total = 878832
Balancing ...
Neighbor list info ...
  update every 1 steps, delay 10 steps, check yes
  max neighbors/atom: 2000, page size: 100000
  master list distance cutoff = 2.9
  ghost atom cutoff = 2.9
  binsize = 1.45, bins = 69 69 138
  1 neighbor lists, perpetual/occasional/extra = 1 0 0
  (1) pair lj/cut/opt, perpetual
      attributes: half, newton on
      pair build: half/bin/newton
      stencil: half/bin/3d/newton
      bin: standard
 rebalancing time: 0.026 seconds
  iteration count = 5
  initial/final maximal load/proc = 28072.000 20496.000
  initial/final imbalance factor  = 1.5332350 1.1194495
  x cuts: 0.0000000 0.33333333 0.66666667 1.0000000
  y cuts: 0.0000000 0.50000000 1.0000000
  z cuts: 0.0000000 0.089843750 0.17578125 0.26171875 0.35156250 0.42968750 0.50781250 0.58203125 1.0000000
dynamic group thermo defined
New timer settings: style=full  mode=nosync  timeout=off
Setting up Verlet run ...
  Unit style    : lj
  Current step  : 0
  Time step     : 0.005
Per MPI rank memory allocation (min/avg/max) = 22.49 | 27.59 | 29.93 Mbytes
Step Temp E_pair E_vdwl TotEng Press PotEng KinEng Atoms 
       0            1    -4.085589    -4.085589   -2.5855908    -1.390929    -4.085589    1.4999983   878832 
    1000   0.86945248   -3.8578576   -3.8578576   -2.5536804 -0.038909604   -3.8578576    1.3041772   878832 
    2000   0.88251587   -3.8556758   -3.8556758   -2.5319035 -0.017874531   -3.8556758    1.3237723   878832 
    3000   0.89425368   -3.8567583   -3.8567583   -2.5153793 0.0065898971   -3.8567583     1.341379   878832 
    4000   0.90510215   -3.8620226   -3.8620226   -2.5043709  0.032404394   -3.8620226    1.3576517   878832 
    5000   0.91356642   -3.8658835   -3.8658835   -2.4955354  0.064716864   -3.8658835    1.3703481   878832 
    6000   0.92410939   -3.8739525   -3.8739525     -2.48779  0.085094488   -3.8739525    1.3861625   878832 
    7000   0.92756762   -3.8741252   -3.8741252   -2.4827753  0.096001387   -3.8741252    1.3913498   878832 
    8000   0.92665423   -3.8714977   -3.8714977   -2.4815179  0.096879663   -3.8714977    1.3899798   878832 
    9000   0.92512577   -3.8705479   -3.8705479   -2.4828608   0.08568567   -3.8705479    1.3876871   878832 
   10000   0.92258539   -3.8692344   -3.8692344   -2.4853579  0.076538636   -3.8692344    1.3838765   878832 
   11000   0.91958594   -3.8664823   -3.8664823    -2.487105  0.069997181   -3.8664823    1.3793773   878832 
   12000   0.91700702   -3.8645277   -3.8645277   -2.4890187  0.063659623   -3.8645277     1.375509   878832 
   13000   0.91714218    -3.865837    -3.865837   -2.4901253  0.058593073    -3.865837    1.3757117   878832 
   14000   0.91889738   -3.8664315   -3.8664315    -2.488087  0.062399807   -3.8664315    1.3783445   878832 
   15000   0.91864652   -3.8641245   -3.8641245   -2.4861563  0.070488415   -3.8641245    1.3779682   878832 
   16000   0.92021825   -3.8635833   -3.8635833   -2.4832575  0.070723301   -3.8635833    1.3803258   878832 
   17000   0.92129653   -3.8616396   -3.8616396   -2.4796963  0.068315367   -3.8616396    1.3819432   878832 
   18000   0.91969687   -3.8561623   -3.8561623   -2.4766186  0.066426727   -3.8561623    1.3795437   878832 
   19000   0.91715253   -3.8498778   -3.8498778   -2.4741506  0.059826683   -3.8498778    1.3757272   878832 
   20000   0.91487766   -3.8447407   -3.8447407   -2.4724258  0.046700724   -3.8447407    1.3723149   878832 
   21000   0.91256122   -3.8375798   -3.8375798   -2.4687396  0.041030433   -3.8375798    1.3688403   878832 
   22000   0.91038871   -3.8320286   -3.8320286   -2.4664471  0.034688199   -3.8320286    1.3655815   878832 
   23000   0.90852238   -3.8267595   -3.8267595   -2.4639775  0.030702334   -3.8267595     1.362782   878832 
   24000   0.90782755   -3.8224466   -3.8224466   -2.4607068  0.027079952   -3.8224466    1.3617398   878832 
   25000   0.90792329   -3.8190655   -3.8190655   -2.4571821  0.027283404   -3.8190655    1.3618834   878832 
   26000   0.90763205    -3.814978    -3.814978   -2.4535315  0.026166788    -3.814978    1.3614465   878832 
   27000   0.90941969   -3.8121832   -3.8121832   -2.4480552  0.030255946   -3.8121832     1.364128   878832 
   28000   0.91033065   -3.8095513   -3.8095513   -2.4440569  0.030011153   -3.8095513    1.3654944   878832 
   29000   0.90977592   -3.8042952   -3.8042952   -2.4396329  0.030147751   -3.8042952    1.3646623   878832 
   30000   0.91041616   -3.8014685   -3.8014685   -2.4358458  0.029991015   -3.8014685    1.3656227   878832 
   31000   0.91036061   -3.7992172   -3.7992172   -2.4336778  0.028579548   -3.7992172    1.3655394   878832 
   32000   0.91006124   -3.7956623   -3.7956623    -2.430572  0.027962383   -3.7956623    1.3650903   878832 
   33000   0.90945184   -3.7924897   -3.7924897   -2.4283135  0.025355214   -3.7924897    1.3641762   878832 
   34000   0.90971875   -3.7903858   -3.7903858   -2.4258093  0.022911226   -3.7903858    1.3645766   878832 
   35000   0.90938876   -3.7874175   -3.7874175   -2.4233359  0.021360376   -3.7874175    1.3640816   878832 
   36000   0.90892843   -3.7840041   -3.7840041    -2.420613  0.022726608   -3.7840041    1.3633911   878832 
   37000   0.90824169   -3.7815198   -3.7815198   -2.4191588  0.024897258   -3.7815198     1.362361   878832 
   38000   0.90913771   -3.7803137   -3.7803137   -2.4166087   0.02318764   -3.7803137     1.363705   878832 
   39000    0.9093559   -3.7787676   -3.7787676   -2.4147353  0.028649699   -3.7787676    1.3640323   878832 
   40000   0.91072541   -3.7784755   -3.7784755   -2.4123889  0.025656173   -3.7784755    1.3660866   878832 
   41000   0.91144855   -3.7779441   -3.7779441   -2.4107728   0.02790525   -3.7779441    1.3671713   878832 
   42000   0.91228011   -3.7769318   -3.7769318   -2.4085132  0.030773055   -3.7769318    1.3684186   878832 
   43000   0.91338902   -3.7765309   -3.7765309   -2.4064489  0.033158603   -3.7765309     1.370082   878832 
   44000   0.91345891   -3.7761645   -3.7761645   -2.4059777   0.03286807   -3.7761645    1.3701868   878832 
   45000   0.91481622   -3.7758131   -3.7758131   -2.4035904   0.03008015   -3.7758131    1.3722228   878832 
   46000   0.91372934   -3.7740642   -3.7740642   -2.4034717  0.031668754   -3.7740642    1.3705925   878832 
   47000   0.91411419   -3.7740211   -3.7740211   -2.4028514  0.030207006   -3.7740211    1.3711697   878832 
   48000   0.91407022   -3.7729286   -3.7729286   -2.4018249  0.028665763   -3.7729286    1.3711038   878832 
   49000   0.91411713   -3.7722999   -3.7722999   -2.4011258  0.030148052   -3.7722999    1.3711741   878832 
   50000    0.9138503   -3.7708931   -3.7708931   -2.4001193  0.031022352   -3.7708931    1.3707739   878832 
   51000   0.91404846   -3.7701771   -3.7701771   -2.3991059   0.03014459   -3.7701771    1.3710711   878832 
   52000   0.91456741   -3.7705078   -3.7705078   -2.3986583  0.031211588   -3.7705078    1.3718496   878832 
   53000   0.91464009   -3.7703138   -3.7703138   -2.3983552  0.034282194   -3.7703138    1.3719586   878832 
   54000   0.91542028   -3.7702911   -3.7702911   -2.3971622   0.03037684   -3.7702911    1.3731289   878832 
   55000   0.91564599   -3.7708264   -3.7708264   -2.3973589  0.034714099   -3.7708264    1.3734674   878832 
   56000   0.91479078   -3.7704619   -3.7704619   -2.3982773  0.032369247   -3.7704619    1.3721846   878832 
   57000   0.91555488   -3.7718684   -3.7718684   -2.3985376  0.033937873   -3.7718684    1.3733308   878832 
   58000   0.91535934     -3.77132     -3.77132   -2.3982826  0.035184139     -3.77132    1.3730375   878832 
   59000   0.91582342   -3.7710947   -3.7710947   -2.3973611   0.03432993   -3.7710947    1.3737336   878832 
   60000   0.91680244   -3.7719315   -3.7719315   -2.3967294  0.035430483   -3.7719315    1.3752021   878832 
   61000   0.91742412      -3.7713      -3.7713   -2.3951654  0.034018557      -3.7713    1.3761346   878832 
   62000   0.91634922   -3.7700364   -3.7700364   -2.3955141  0.037440484   -3.7700364    1.3745223   878832 
   63000   0.91785644   -3.7717779   -3.7717779   -2.3949948  0.033539742   -3.7717779    1.3767831   878832 
   64000   0.91767273   -3.7711392   -3.7711392   -2.3946317  0.035656365   -3.7711392    1.3765075   878832 
   65000   0.91765071   -3.7708617   -3.7708617   -2.3943872  0.036686107   -3.7708617    1.3764745   878832 
   66000   0.91794087   -3.7708464   -3.7708464   -2.3939367  0.040564276   -3.7708464    1.3769097   878832 
   67000   0.91761714   -3.7708623   -3.7708623   -2.3944381  0.038378303   -3.7708623    1.3764241   878832 
   68000   0.91834924   -3.7711104   -3.7711104   -2.3935881  0.039399787   -3.7711104    1.3775223   878832 
   69000   0.91757842   -3.7697866   -3.7697866   -2.3934206  0.038985013   -3.7697866    1.3763661   878832 
   70000   0.91722264   -3.7688398   -3.7688398   -2.3930075  0.037190861   -3.7688398    1.3758324   878832 
   71000   0.91729756    -3.768917    -3.768917   -2.3929723  0.031930895    -3.768917    1.3759448   878832 
   72000   0.91659781    -3.767494    -3.767494   -2.3925989  0.035029371    -3.767494    1.3748951   878832 
   73000   0.91688527   -3.7680207   -3.7680207   -2.3926944  0.030681178   -3.7680207    1.3753263   878832 
   74000   0.91613414   -3.7671507   -3.7671507   -2.3929511  0.031692747   -3.7671507    1.3741996   878832 
   75000   0.91719034   -3.7683848   -3.7683848   -2.3926009  0.031202386   -3.7683848    1.3757839   878832 
   76000   0.91709553   -3.7671267   -3.7671267    -2.391485  0.035427707   -3.7671267    1.3756417   878832 
   77000   0.91870712   -3.7679143   -3.7679143   -2.3898552  0.034221525   -3.7679143    1.3780591   878832 
   78000   0.91933756   -3.7683071   -3.7683071   -2.3893023  0.034515764   -3.7683071    1.3790048   878832 
   79000   0.91982904   -3.7684153   -3.7684153   -2.3886733  0.039731992   -3.7684153     1.379742   878832 
   80000   0.92012262   -3.7681151   -3.7681151   -2.3879327  0.042550406   -3.7681151    1.3801824   878832 
   81000   0.91920671    -3.765815    -3.765815   -2.3870065  0.037517999    -3.765815    1.3788085   878832 
   82000   0.92053327   -3.7670806   -3.7670806   -2.3862822  0.038715663   -3.7670806    1.3807983   878832 
   83000   0.91887803   -3.7643268   -3.7643268   -2.3860113  0.036280473   -3.7643268    1.3783155   878832 
   84000   0.91859223   -3.7631178   -3.7631178    -2.385231  0.036912695   -3.7631178    1.3778868   878832 
   85000   0.91736093   -3.7611245   -3.7611245   -2.3850846  0.035027366   -3.7611245    1.3760398   878832 
   86000   0.91756009   -3.7610085   -3.7610085     -2.38467  0.034180806   -3.7610085    1.3763386   878832 
   87000   0.91836247   -3.7620065   -3.7620065   -2.3844643  0.032514257   -3.7620065    1.3775421   878832 
   88000   0.91826771   -3.7609536   -3.7609536   -2.3835536  0.035066112   -3.7609536       1.3774   878832 
   89000   0.91732708   -3.7585188   -3.7585188   -2.3825298  0.037783909   -3.7585188    1.3759891   878832 
   90000    0.9193789   -3.7599089   -3.7599089   -2.3808421  0.033010894   -3.7599089    1.3790668   878832 
   91000   0.91823784   -3.7574661   -3.7574661   -2.3801109  0.036359494   -3.7574661    1.3773552   878832 
   92000   0.91900036    -3.758734    -3.758734   -2.3802351  0.035282069    -3.758734     1.378499   878832 
   93000   0.91937888   -3.7582669   -3.7582669   -2.3792001  0.035157722   -3.7582669    1.3790668   878832 
   94000   0.91816771   -3.7553704   -3.7553704   -2.3781204  0.031526304   -3.7553704      1.37725   878832 
   95000   0.91751056   -3.7542222   -3.7542222   -2.3779579  0.033644273   -3.7542222    1.3762643   878832 
   96000   0.91773216   -3.7539865   -3.7539865   -2.3773898  0.032713322   -3.7539865    1.3765967   878832 
   97000   0.91773628    -3.753187    -3.753187   -2.3765842  0.029912722    -3.753187    1.3766028   878832 
   98000   0.91676105   -3.7512258   -3.7512258   -2.3760858  0.030626762   -3.7512258      1.37514   878832 
   99000   0.91908308   -3.7525301   -3.7525301    -2.373907  0.033326845   -3.7525301     1.378623   878832 
  100000   0.91928971   -3.7521913   -3.7521913   -2.3732584  0.033646085   -3.7521913     1.378933   878832 
  101000   0.91899016   -3.7506163   -3.7506163   -2.3721326  0.035581863   -3.7506163    1.3784837   878832 
  102000   0.91995015   -3.7510046   -3.7510046    -2.371081  0.032294207   -3.7510046    1.3799236   878832 
  103000   0.91895825   -3.7488053   -3.7488053   -2.3703695  0.034292694   -3.7488053    1.3784358   878832 
  104000   0.91949395   -3.7487162   -3.7487162   -2.3694769  0.034031778   -3.7487162    1.3792394   878832 
  105000   0.91964171   -3.7482198   -3.7482198   -2.3687588  0.035163101   -3.7482198     1.379461   878832 
  106000    0.9191141   -3.7480206   -3.7480206    -2.369351    0.0345872   -3.7480206    1.3786696   878832 
  107000   0.91864614   -3.7462688   -3.7462688   -2.3683012   0.03125306   -3.7462688    1.3779676   878832 
  108000   0.91861684   -3.7453043   -3.7453043   -2.3673806  0.029239816   -3.7453043    1.3779237   878832 
  109000   0.91872217   -3.7445001   -3.7445001   -2.3664184  0.031289256   -3.7445001    1.3780817   878832 
  110000   0.91877219   -3.7435538   -3.7435538   -2.3653971  0.031813858   -3.7435538    1.3781567   878832 
  111000   0.91951678   -3.7433358   -3.7433358   -2.3640622  0.033883455   -3.7433358    1.3792736   878832 
  112000   0.91926302   -3.7431075   -3.7431075   -2.3642145  0.029504434   -3.7431075     1.378893   878832 
  113000   0.92010089   -3.7440421   -3.7440421   -2.3638924  0.036602644   -3.7440421    1.3801498   878832 
  114000   0.92076111   -3.7441396   -3.7441396   -2.3629995   0.03289859   -3.7441396    1.3811401   878832 
  115000   0.92107041   -3.7437388   -3.7437388   -2.3621347  0.033010797   -3.7437388     1.381604   878832 
  116000   0.91986549   -3.7416529   -3.7416529   -2.3618563  0.032784073   -3.7416529    1.3797967   878832 
  117000   0.91879649     -3.73944     -3.73944   -2.3612468  0.032726552     -3.73944    1.3781932   878832 
  118000   0.92027494   -3.7402861   -3.7402861   -2.3598752  0.032135746   -3.7402861    1.3804108   878832 
  119000   0.91894641   -3.7377026   -3.7377026   -2.3592846  0.032207065   -3.7377026    1.3784181   878832 
  120000   0.92008276   -3.7391389   -3.7391389   -2.3590163  0.031466036   -3.7391389    1.3801226   878832 
  121000    0.9185078   -3.7370831   -3.7370831    -2.359323  0.031499048   -3.7370831    1.3777601   878832 
  122000   0.91982383   -3.7380752   -3.7380752    -2.358341  0.030990609   -3.7380752    1.3797342   878832 
  123000    0.9205115     -3.73837     -3.73837   -2.3576043  0.031982205     -3.73837    1.3807657   878832 
  124000   0.92099626   -3.7389873   -3.7389873   -2.3574945  0.030641513   -3.7389873    1.3814928   878832 
  125000   0.92093222   -3.7387881   -3.7387881   -2.3573913  0.035443842   -3.7387881    1.3813968   878832 
  126000   0.92088453   -3.7374034   -3.7374034   -2.3560782  0.033888633   -3.7374034    1.3813252   878832 
  127000   0.92121295   -3.7376124   -3.7376124   -2.3557945  0.036265842   -3.7376124    1.3818178   878832 
  128000   0.92123453   -3.7373509   -3.7373509   -2.3555007   0.03482422   -3.7373509    1.3818502   878832 
  129000   0.92109268   -3.7363435   -3.7363435    -2.354706  0.035340972   -3.7363435    1.3816374   878832 
  130000   0.92156463   -3.7363043   -3.7363043   -2.3539589  0.033409528   -3.7363043    1.3823454   878832 
  131000   0.92019253    -3.733293    -3.733293   -2.3530057  0.033445524    -3.733293    1.3802872   878832 
  132000   0.92124647   -3.7341524   -3.7341524   -2.3522843  0.030373357   -3.7341524    1.3818681   878832 
  133000    0.9213706   -3.7348182   -3.7348182   -2.3527639  0.031962535   -3.7348182    1.3820543   878832 
  134000   0.92253595    -3.735144    -3.735144   -2.3513416  0.032104962    -3.735144    1.3838024   878832 
  135000   0.92181603   -3.7343491   -3.7343491   -2.3516266  0.033173394   -3.7343491    1.3827225   878832 
  136000   0.92226598   -3.7353766   -3.7353766   -2.3519792   0.03332596   -3.7353766    1.3833974   878832 
  137000   0.92136277   -3.7338218   -3.7338218   -2.3517792  0.037751039   -3.7338218    1.3820426   878832 
  138000   0.92255421   -3.7346589   -3.7346589   -2.3508291  0.033770179   -3.7346589    1.3838297   878832 
  139000   0.92133421   -3.7326846   -3.7326846   -2.3506848  0.034700512   -3.7326846    1.3819997   878832 
  140000   0.92165515   -3.7325817   -3.7325817   -2.3501005  0.036541758   -3.7325817    1.3824811   878832 
  141000   0.92159452   -3.7309793   -3.7309793   -2.3485891  0.034478152   -3.7309793    1.3823902   878832 
  142000   0.92162848   -3.7311998   -3.7311998   -2.3487586  0.028947486   -3.7311998    1.3824411   878832 
  143000   0.92207104   -3.7313631   -3.7313631   -2.3482581  0.030687468   -3.7313631     1.383105   878832 
  144000   0.92208026   -3.7317308   -3.7317308    -2.348612  0.030654053   -3.7317308    1.3831188   878832 
  145000   0.92138186   -3.7294343   -3.7294343   -2.3473631  0.033115161   -3.7294343    1.3820712   878832 
  146000   0.92295757   -3.7309299   -3.7309299   -2.3464951  0.032899665   -3.7309299    1.3844348   878832 
  147000    0.9234123     -3.73128     -3.73128   -2.3461631  0.033406627     -3.73128    1.3851169   878832 
  148000   0.92287204   -3.7296509   -3.7296509   -2.3453444  0.034420842   -3.7296509    1.3843065   878832 
  149000   0.92320799   -3.7300205   -3.7300205   -2.3452101  0.037520305   -3.7300205    1.3848104   878832 
  150000   0.92358981   -3.7305214   -3.7305214   -2.3451383  0.035725108   -3.7305214    1.3853831   878832 
  151000   0.92379582   -3.7292278   -3.7292278   -2.3435356  0.036370399   -3.7292278    1.3856922   878832 
  152000   0.92371909   -3.7294362   -3.7294362   -2.3438592  0.032255353   -3.7294362    1.3855771   878832 
  153000   0.92339265   -3.7290419   -3.7290419   -2.3439545  0.036053683   -3.7290419    1.3850874   878832 
  154000   0.92243579   -3.7272672   -3.7272672    -2.343615  0.033909249   -3.7272672    1.3836521   878832 
  155000   0.92181288   -3.7257962   -3.7257962   -2.3430784   0.03207419   -3.7257962    1.3827177   878832 
  156000   0.92296278   -3.7268869   -3.7268869   -2.3424443  0.031763623   -3.7268869    1.3844426   878832 
  157000   0.92375254   -3.7266971   -3.7266971   -2.3410699  0.033920849   -3.7266971    1.3856272   878832 
  158000   0.92316888   -3.7256299   -3.7256299   -2.3408782  0.033068346   -3.7256299    1.3847517   878832 
  159000   0.92402323   -3.7261247   -3.7261247   -2.3400914  0.033439477   -3.7261247    1.3860333   878832 
  160000   0.92299109   -3.7233792   -3.7233792   -2.3388942   0.03633831   -3.7233792    1.3844851   878832 
  161000   0.92345302   -3.7243811   -3.7243811   -2.3392032  0.035024383   -3.7243811     1.385178   878832 
  162000   0.92401894   -3.7240015   -3.7240015   -2.3379747  0.035372832   -3.7240015    1.3860268   878832 
  163000    0.9242346    -3.723699    -3.723699   -2.3373487  0.032793438    -3.723699    1.3863503   878832 
  164000   0.92340612   -3.7222074   -3.7222074   -2.3370998  0.034419063   -3.7222074    1.3851076   878832 
  165000     0.923326   -3.7214832   -3.7214832   -2.3364958  0.033643367   -3.7214832    1.3849874   878832 
  166000   0.92365657   -3.7207994   -3.7207994   -2.3353161  0.033440754   -3.7207994    1.3854833   878832 
  167000   0.92367177   -3.7204172   -3.7204172   -2.3349111  0.031543927   -3.7204172    1.3855061   878832 
  168000   0.92413804   -3.7197984   -3.7197984   -2.3335929  0.032714347   -3.7197984    1.3862055   878832 
  169000    0.9245504    -3.719862    -3.719862    -2.333038  0.035421789    -3.719862     1.386824   878832 
  170000   0.92426996   -3.7190879   -3.7190879   -2.3326846  0.031053733   -3.7190879    1.3864034   878832 
  171000   0.92365388   -3.7181445   -3.7181445   -2.3326652  0.034715015   -3.7181445    1.3854792   878832 
  172000   0.92360357   -3.7169396   -3.7169396   -2.3315358  0.038318459   -3.7169396    1.3854038   878832 
  173000   0.92388225   -3.7164405   -3.7164405   -2.3306187  0.031885986   -3.7164405    1.3858218   878832 
  174000   0.92374452    -3.716549    -3.716549   -2.3309338  0.033870304    -3.716549    1.3856152   878832 
  175000   0.92295048   -3.7147444   -3.7147444   -2.3303202   0.03245679   -3.7147444    1.3844241   878832 
  176000   0.92469278   -3.7163436   -3.7163436    -2.329306  0.030125005   -3.7163436    1.3870376   878832 
  177000   0.92355949   -3.7143443   -3.7143443   -2.3290067  0.032103067   -3.7143443    1.3853377   878832 
  178000   0.92408336   -3.7144761   -3.7144761   -2.3283527  0.032635784   -3.7144761    1.3861235   878832 
  179000   0.92406104   -3.7142728   -3.7142728   -2.3281828  0.037254662   -3.7142728      1.38609   878832 
  180000   0.92508751   -3.7152212   -3.7152212   -2.3275915  0.033357822   -3.7152212    1.3876297   878832 
  181000     0.924156   -3.7133648   -3.7133648   -2.3271323  0.035199802   -3.7133648    1.3862324   878832 
  182000   0.92450047    -3.713327    -3.713327   -2.3265779  0.032599949    -3.713327    1.3867491   878832 
  183000   0.92408161    -3.713269    -3.713269   -2.3271482  0.031238712    -3.713269    1.3861208   878832 
  184000   0.92423953   -3.7125235   -3.7125235   -2.3261658  0.030783205   -3.7125235    1.3863577   878832 
  185000   0.92474113   -3.7108734   -3.7108734   -2.3237633   0.03193301   -3.7108734    1.3871101   878832 
  186000   0.92427735   -3.7111479   -3.7111479   -2.3247334  0.031273082   -3.7111479    1.3864145   878832 
  187000   0.92392206   -3.7093923   -3.7093923   -2.3235108  0.035264137   -3.7093923    1.3858815   878832 
  188000   0.92491253   -3.7098975   -3.7098975   -2.3225303  0.033883278   -3.7098975    1.3873672   878832 
  189000   0.92501447   -3.7105895   -3.7105895   -2.3230694  0.029540742   -3.7105895    1.3875201   878832 
  190000   0.92424473   -3.7092187   -3.7092187   -2.3228532  0.035035601   -3.7092187    1.3863655   878832 
  191000    0.9254173   -3.7100891   -3.7100891   -2.3219648  0.033130781   -3.7100891    1.3881244   878832 
  192000   0.92661591   -3.7104203   -3.7104203    -2.320498  0.035945429   -3.7104203    1.3899223   878832 
  193000   0.92532774   -3.7080936   -3.7080936   -2.3201035  0.034393292   -3.7080936      1.38799   878832 
  194000   0.92612549   -3.7080514   -3.7080514   -2.3188648  0.032597685   -3.7080514    1.3891867   878832 
  195000   0.92590189   -3.7080811   -3.7080811   -2.3192299  0.035099439   -3.7080811    1.3888513   878832 
  196000   0.92691746   -3.7087245   -3.7087245   -2.3183499  0.031927837   -3.7087245    1.3903746   878832 
  197000   0.92566271   -3.7062007   -3.7062007   -2.3177082  0.035607352   -3.7062007    1.3884925   878832 
  198000   0.92721992   -3.7087396   -3.7087396   -2.3179113  0.032834914   -3.7087396    1.3908283   878832 
  199000   0.92564198   -3.7065295   -3.7065295   -2.3180681  0.031123079   -3.7065295    1.3884614   878832 
  200000   0.92606843   -3.7061039   -3.7061039   -2.3170028  0.029959656   -3.7061039    1.3891011   878832 
  201000   0.92640624   -3.7063304   -3.7063304   -2.3167226  0.028774764   -3.7063304    1.3896078   878832 
  202000   0.92655223   -3.7058149   -3.7058149   -2.3159881  0.033243401   -3.7058149    1.3898268   878832 
  203000   0.92672509   -3.7053889   -3.7053889   -2.3153028   0.03121914   -3.7053889    1.3900861   878832 
  204000   0.92668102   -3.7043595   -3.7043595   -2.3143395  0.030315921   -3.7043595    1.3900199   878832 
  205000   0.92620053   -3.7032003   -3.7032003   -2.3139011  0.029596873   -3.7032003    1.3892992   878832 
  206000   0.92548165   -3.7028428   -3.7028428   -2.3146219  0.031828863   -3.7028428    1.3882209   878832 
  207000   0.92574834   -3.7027112   -3.7027112   -2.3140902  0.031115569   -3.7027112    1.3886209   878832 
  208000   0.92580557   -3.7020884   -3.7020884   -2.3133817  0.029195928   -3.7020884    1.3887068   878832 
  209000   0.92607105   -3.7014747   -3.7014747   -2.3123697  0.033499477   -3.7014747     1.389105   878832 
  210000   0.92538169   -3.7001764   -3.7001764   -2.3121055  0.033246568   -3.7001764     1.388071   878832 
  211000   0.92533622   -3.6998672   -3.6998672   -2.3118644  0.032909018   -3.6998672    1.3880028   878832 
  212000   0.92554024   -3.7001522   -3.7001522   -2.3118435  0.030877217   -3.7001522    1.3883088   878832 
  213000    0.9256088   -3.6995085   -3.6995085   -2.3110969    0.0322231   -3.6995085    1.3884116   878832 
  214000   0.92518471   -3.6991367   -3.6991367   -2.3113612  0.032684936   -3.6991367    1.3877755   878832 
  215000   0.92508047   -3.6985645   -3.6985645   -2.3109454  0.030147582   -3.6985645    1.3876191   878832 
  216000   0.92571428   -3.6996054   -3.6996054   -2.3110356   0.02956819   -3.6996054    1.3885698   878832 
  217000   0.92451495   -3.6977953   -3.6977953   -2.3110245  0.030709662   -3.6977953    1.3867709   878832 
  218000   0.92602571   -3.6990395   -3.6990395   -2.3100026  0.029706778   -3.6990395     1.389037   878832 
  219000   0.92610162   -3.6987512   -3.6987512   -2.3096004  0.030045463   -3.6987512    1.3891509   878832 
  220000   0.92703679   -3.6996194   -3.6996194   -2.3090658  0.030401715   -3.6996194    1.3905536   878832 
  221000   0.92621951   -3.6985082   -3.6985082   -2.3091805  0.034230867   -3.6985082    1.3893277   878832 
  222000   0.92659194   -3.6985427   -3.6985427   -2.3086564  0.033662459   -3.6985427    1.3898863   878832 
  223000   0.92747374   -3.6993185   -3.6993185   -2.3081095  0.031908362   -3.6993185     1.391209   878832 
  224000   0.92704907   -3.6979463   -3.6979463   -2.3073743  0.034774781   -3.6979463     1.390572   878832 
  225000   0.92717002    -3.697706    -3.697706   -2.3069526  0.034935449    -3.697706    1.3907534   878832 
  226000   0.92657381   -3.6958989   -3.6958989   -2.3060397  0.035901409   -3.6958989    1.3898591   878832 
  227000      0.92767   -3.6975026   -3.6975026   -2.3059992  0.031895989   -3.6975026    1.3915034   878832 
  228000   0.92642243   -3.6959644   -3.6959644   -2.3063323  0.032320637   -3.6959644    1.3896321   878832 
  229000   0.92689688   -3.6959106   -3.6959106   -2.3055669  0.032026661   -3.6959106    1.3903437   878832 
  230000   0.92762019    -3.696856    -3.696856   -2.3054273  0.031701811    -3.696856    1.3914287   878832 
  231000   0.92859001   -3.6972137   -3.6972137   -2.3043303  0.031967982   -3.6972137    1.3928834   878832 
  232000   0.92721604    -3.695783    -3.695783   -2.3049605     0.035198    -3.695783    1.3908225   878832 
  233000   0.92832549   -3.6970667   -3.6970667     -2.30458  0.033617274   -3.6970667    1.3924867   878832 
  234000   0.92825134   -3.6962121   -3.6962121   -2.3038366   0.03301249   -3.6962121    1.3923754   878832 
  235000   0.92827935   -3.6968758   -3.6968758   -2.3044584  0.033002438   -3.6968758    1.3924174   878832 
  236000   0.92825116   -3.6963349   -3.6963349   -2.3039597  0.033678605   -3.6963349    1.3923752   878832 
  237000   0.92706706   -3.6943256   -3.6943256   -2.3037266  0.034065113   -3.6943256     1.390599   878832 
  238000   0.92755272   -3.6942245   -3.6942245    -2.302897  0.034249532   -3.6942245    1.3913275   878832 
  239000   0.92702403    -3.692875    -3.692875   -2.3023405  0.032840579    -3.692875    1.3905345   878832 
  240000   0.92787047   -3.6937351   -3.6937351   -2.3019309  0.031757522   -3.6937351    1.3918041   878832 
  241000   0.92698491    -3.692115    -3.692115   -2.3016392  0.031427843    -3.692115    1.3904758   878832 
  242000   0.92705767   -3.6927104   -3.6927104   -2.3021254  0.034225465   -3.6927104    1.3905849   878832 
  243000   0.92765119   -3.6927881   -3.6927881   -2.3013129  0.035117347   -3.6927881    1.3914752   878832 
  244000   0.92778362   -3.6929342   -3.6929342   -2.3012603  0.036639525   -3.6929342    1.3916738   878832 
  245000   0.92773333   -3.6920812   -3.6920812   -2.3004828  0.034482192   -3.6920812    1.3915984   878832 
  246000   0.92753223   -3.6922099   -3.6922099   -2.3009131  0.035659594   -3.6922099    1.3912968   878832 
  247000    0.9281503   -3.6926354   -3.6926354   -2.3004115  0.029746894   -3.6926354    1.3922239   878832 
  248000   0.92734507    -3.690356    -3.690356     -2.29934  0.034933857    -3.690356     1.391016   878832 
  249000   0.92780148   -3.6905032   -3.6905032   -2.2988026   0.03035114   -3.6905032    1.3917006   878832 
  250000    0.9287113   -3.6906834   -3.6906834   -2.2976181  0.032209782   -3.6906834    1.3930654   878832 
  251000   0.92768176   -3.6893142   -3.6893142   -2.2977931  0.033771834   -3.6893142    1.3915211   878832 
  252000   0.92835729   -3.6903772   -3.6903772   -2.2978428  0.031243613   -3.6903772    1.3925343   878832 
  253000   0.92774485   -3.6895406   -3.6895406   -2.2979249  0.031164147   -3.6895406    1.3916157   878832 
  254000   0.92759724   -3.6891574   -3.6891574   -2.2977632  0.032746558   -3.6891574    1.3913943   878832 
  255000   0.92805488   -3.6895298   -3.6895298    -2.297449  0.033430583   -3.6895298    1.3920807   878832 
  256000   0.92786562   -3.6885478   -3.6885478   -2.2967509  0.036108059   -3.6885478    1.3917968   878832 
  257000   0.92795462   -3.6885688   -3.6885688   -2.2966384  0.030238043   -3.6885688    1.3919303   878832 
  258000   0.92827261   -3.6879551   -3.6879551   -2.2955477  0.029961795   -3.6879551    1.3924073   878832 
  259000   0.92834527   -3.6876798   -3.6876798   -2.2951635  0.029143917   -3.6876798    1.3925163   878832 
  260000   0.92758471   -3.6865162   -3.6865162   -2.2951407  0.035348349   -3.6865162    1.3913755   878832 
  261000   0.92753835   -3.6861944   -3.6861944   -2.2948884  0.035446883   -3.6861944    1.3913059   878832 
  262000   0.92779709   -3.6862593   -3.6862593   -2.2945652  0.031696252   -3.6862593    1.3916941   878832 
  263000   0.92897578   -3.6873022   -3.6873022   -2.2938401  0.035373034   -3.6873022    1.3934621   878832 
  264000   0.92851106   -3.6866218   -3.6866218   -2.2938568  0.035058201   -3.6866218     1.392765   878832 
  265000   0.92992472   -3.6871637   -3.6871637   -2.2922782   0.03144376   -3.6871637    1.3948855   878832 
  266000   0.93003318    -3.688029    -3.688029   -2.2929808   0.03541622    -3.688029    1.3950482   878832 
  267000   0.92859647   -3.6855473   -3.6855473   -2.2926542  0.037498977   -3.6855473    1.3928931   878832 
  268000   0.92886276   -3.6865721   -3.6865721   -2.2932796  0.034048365   -3.6865721    1.3932926   878832 
  269000   0.92895672   -3.6862926   -3.6862926   -2.2928591  0.031217507   -3.6862926    1.3934335   878832 
  270000   0.92958793   -3.6863128   -3.6863128   -2.2919325  0.031205161   -3.6863128    1.3943803   878832 
  271000   0.92975688   -3.6865252   -3.6865252   -2.2918915  0.031736996   -3.6865252    1.3946337   878832 
  272000   0.92902525   -3.6859414   -3.6859414   -2.2924051  0.031508064   -3.6859414    1.3935363   878832 
  273000   0.92886184   -3.6845998   -3.6845998   -2.2913086  0.036809079   -3.6845998    1.3932912   878832 
  274000   0.93093589   -3.6872202   -3.6872202   -2.2908179   0.03130842   -3.6872202    1.3964022   878832 
  275000   0.92950514   -3.6834731   -3.6834731   -2.2892169  0.035736651   -3.6834731    1.3942561   878832 
  276000   0.92909136   -3.6830288   -3.6830288   -2.2893934  0.033200397   -3.6830288    1.3936355   878832 
  277000    0.9295278   -3.6839068   -3.6839068   -2.2896167  0.037077778   -3.6839068    1.3942901   878832 
  278000   0.92950684   -3.6838423   -3.6838423   -2.2895836  0.035403037   -3.6838423    1.3942587   878832 
  279000    0.9298692   -3.6834649   -3.6834649   -2.2886627  0.034500255   -3.6834649    1.3948022   878832 
  280000   0.92952575   -3.6820152   -3.6820152   -2.2877281  0.032706267   -3.6820152     1.394287   878832 
  281000   0.92974623   -3.6825077   -3.6825077   -2.2878899  0.032568077   -3.6825077    1.3946178   878832 
  282000     0.930106   -3.6821148   -3.6821148   -2.2869574  0.035215089   -3.6821148    1.3951574   878832 
  283000   0.93034382   -3.6826206   -3.6826206   -2.2871065  0.029826945   -3.6826206    1.3955141   878832 
  284000   0.92977025   -3.6805899   -3.6805899   -2.2859361  0.034452216   -3.6805899    1.3946538   878832 
  285000   0.93064909   -3.6817874   -3.6817874   -2.2858154  0.030410575   -3.6817874    1.3959721   878832 
  286000   0.93035009   -3.6816143   -3.6816143   -2.2860907  0.033383954   -3.6816143    1.3955235   878832 
  287000   0.93099545   -3.6823214   -3.6823214   -2.2858298   0.03442483   -3.6823214    1.3964916   878832 
  288000   0.93029982    -3.680644    -3.680644   -2.2851959  0.036560867    -3.680644    1.3954481   878832 
  289000   0.93116551   -3.6815257   -3.6815257    -2.284779  0.030134652   -3.6815257    1.3967467   878832 
  290000   0.93007942    -3.679443    -3.679443   -2.2843254  0.031773247    -3.679443    1.3951175   878832 
  291000   0.93013853   -3.6792055   -3.6792055   -2.2839993  0.032803307   -3.6792055    1.3952062   878832 
  292000   0.93070333   -3.6798424   -3.6798424    -2.283789  0.028356723   -3.6798424    1.3960534   878832 
  293000   0.93073422    -3.678706    -3.678706   -2.2826063  0.031209569    -3.678706    1.3960997   878832 
  294000   0.92984865   -3.6771257   -3.6771257   -2.2823543  0.030530932   -3.6771257    1.3947714   878832 
  295000   0.92979707   -3.6761842   -3.6761842   -2.2814901   0.03332603   -3.6761842     1.394694   878832 
  296000   0.93079054   -3.6769082   -3.6769082    -2.280724  0.031972328   -3.6769082    1.3961842   878832 
  297000   0.93067943   -3.6760373   -3.6760373   -2.2800197  0.032856241   -3.6760373    1.3960175   878832 
  298000   0.93054936   -3.6743137   -3.6743137   -2.2784913   0.03756595   -3.6743137    1.3958224   878832 
  299000   0.93102851   -3.6743866   -3.6743866   -2.2778454   0.03453868   -3.6743866    1.3965412   878832 
  300000   0.93140091   -3.6748986   -3.6748986   -2.2777988  0.035419259   -3.6748986    1.3970998   878832 
  301000   0.93085558   -3.6743874   -3.6743874   -2.2781057  0.032471681   -3.6743874    1.3962818   878832 
  302000   0.93146065   -3.6745142   -3.6745142   -2.2773248  0.029420077   -3.6745142    1.3971894   878832 
  303000    0.9315832   -3.6743304   -3.6743304   -2.2769572  0.034606981   -3.6743304    1.3973732   878832 
  304000   0.93053278   -3.6720666   -3.6720666    -2.276269  0.032470889   -3.6720666    1.3957976   878832 
  305000   0.93066934   -3.6722401   -3.6722401   -2.2762377  0.029901369   -3.6722401    1.3960024   878832 
  306000   0.93086005   -3.6726783   -3.6726783   -2.2763898  0.027829261   -3.6726783    1.3962885   878832 
  307000   0.92973529   -3.6708836   -3.6708836   -2.2762823   0.02905689   -3.6708836    1.3946013   878832 
  308000   0.93105172   -3.6721248   -3.6721248   -2.2755488  0.030599862   -3.6721248     1.396576   878832 
  309000   0.93007526   -3.6704016   -3.6704016   -2.2752903  0.029551977   -3.6704016    1.3951113   878832 
  310000   0.93073558   -3.6717498   -3.6717498    -2.275648  0.032306732   -3.6717498    1.3961018   878832 
  311000   0.92999395   -3.6706392   -3.6706392   -2.2756499  0.033404156   -3.6706392    1.3949893   878832 
  312000   0.92961311   -3.6696855   -3.6696855   -2.2752675  0.032514717   -3.6696855    1.3944181   878832 
  313000   0.93067907     -3.67128     -3.67128    -2.275263  0.030147629     -3.67128     1.396017   878832 
  314000   0.92988011   -3.6698257   -3.6698257   -2.2750071  0.031568412   -3.6698257    1.3948186   878832 
  315000    0.9308314   -3.6700732   -3.6700732   -2.2738277  0.029253852   -3.6700732    1.3962455   878832 
  316000   0.93050066   -3.6688595   -3.6688595   -2.2731101  0.031703629   -3.6688595    1.3957494   878832 
  317000   0.93040793   -3.6675928   -3.6675928   -2.2719825  0.032823114   -3.6675928    1.3956103   878832 
  318000   0.93115061   -3.6683628   -3.6683628   -2.2716385  0.029273371   -3.6683628    1.3967243   878832 
  319000   0.93182751   -3.6687066   -3.6687066    -2.270967  0.033053336   -3.6687066    1.3977397   878832 
  320000   0.93191765   -3.6689062   -3.6689062   -2.2710313  0.037841222   -3.6689062    1.3978749   878832 
  321000   0.93236874    -3.669131    -3.669131   -2.2705795  0.034675184    -3.669131    1.3985515   878832 
  322000   0.93308776   -3.6688358   -3.6688358   -2.2692058  0.033413453   -3.6688358    1.3996301   878832 
  323000   0.93314068   -3.6687258   -3.6687258   -2.2690164  0.037387374   -3.6687258    1.3997094   878832 
  324000   0.93274818   -3.6678741   -3.6678741   -2.2687534  0.035240874   -3.6678741    1.3991207   878832 
  325000   0.93321677   -3.6685464   -3.6685464   -2.2687229  0.038178533   -3.6685464    1.3998236   878832 
  326000   0.93329113   -3.6677822   -3.6677822    -2.267847  0.032011897   -3.6677822    1.3999351   878832 
  327000   0.93199846    -3.665323    -3.665323   -2.2673269  0.034328879    -3.665323    1.3979961   878832 
  328000   0.93394723   -3.6679579   -3.6679579   -2.2670387  0.033403214   -3.6679579    1.4009193   878832 
  329000   0.93276066   -3.6660615   -3.6660615   -2.2669221  0.033860213   -3.6660615    1.3991394   878832 
  330000   0.93264553   -3.6655705   -3.6655705   -2.2666038  0.031156479   -3.6655705    1.3989667   878832 
  331000   0.93206749   -3.6653567   -3.6653567    -2.267257  0.035078152   -3.6653567    1.3980997   878832 
  332000   0.93362007   -3.6667654   -3.6667654   -2.2663369  0.035764468   -3.6667654    1.4004285   878832 
  333000   0.93351108   -3.6661112   -3.6661112   -2.2658462  0.037282095   -3.6661112     1.400265   878832 
  334000   0.93362189    -3.665989    -3.665989   -2.2655577  0.035943393    -3.665989    1.4004312   878832 
  335000   0.93321922   -3.6643623   -3.6643623    -2.264535  0.036346075   -3.6643623    1.3998272   878832 
  336000   0.93327855   -3.6645728   -3.6645728   -2.2646566  0.035364928   -3.6645728    1.3999162   878832 
  337000   0.93238722   -3.6626266   -3.6626266   -2.2640474  0.032889499   -3.6626266    1.3985792   878832 
  338000   0.93293087    -3.662545    -3.662545   -2.2631503  0.033940806    -3.662545    1.3993947   878832 
  339000    0.9325218   -3.6622324   -3.6622324   -2.2634513  0.034470035   -3.6622324    1.3987811   878832 
  340000   0.93160261   -3.6608482   -3.6608482   -2.2634459  0.033275596   -3.6608482    1.3974023   878832 
  341000   0.93210434    -3.661332    -3.661332   -2.2631771   0.03296693    -3.661332    1.3981549   878832 
  342000   0.93236827   -3.6614279   -3.6614279    -2.262877  0.033405146   -3.6614279    1.3985508   878832 
  343000   0.93163915   -3.6602124   -3.6602124   -2.2627553  0.031217886   -3.6602124    1.3974571   878832 
  344000   0.93336708   -3.6622045   -3.6622045   -2.2621555  0.032581786   -3.6622045     1.400049   878832 
  345000   0.93283315   -3.6601112   -3.6601112   -2.2608631  0.034912936   -3.6601112    1.3992481   878832 
  346000   0.93296327   -3.6596541   -3.6596541   -2.2602108  0.035782093   -3.6596541    1.3994433   878832 
  347000   0.93308512   -3.6596402   -3.6596402   -2.2600141  0.033741196   -3.6596402    1.3996261   878832 
  348000   0.93287911   -3.6595294   -3.6595294   -2.2602123  0.032457129   -3.6595294    1.3993171   878832 
  349000   0.93301697   -3.6586642   -3.6586642   -2.2591404  0.033939433   -3.6586642    1.3995239   878832 
  350000   0.93336636   -3.6588068   -3.6588068   -2.2587588   0.03529542   -3.6588068    1.4000479   878832 
  351000   0.93186031   -3.6563848   -3.6563848   -2.2585959  0.034507034   -3.6563848    1.3977889   878832 
  352000   0.93379748   -3.6577779   -3.6577779   -2.2570833  0.025883253   -3.6577779    1.4006946   878832 
  353000    0.9335378   -3.6571394   -3.6571394   -2.2568343  0.031734555   -3.6571394    1.4003051   878832 
  354000   0.93366621   -3.6569201   -3.6569201   -2.2564224  0.030194087   -3.6569201    1.4004977   878832 
  355000   0.93245718   -3.6556984   -3.6556984   -2.2570143  0.033510394   -3.6556984    1.3986842   878832 
  356000   0.93285384   -3.6559284   -3.6559284   -2.2566492  0.031253723   -3.6559284    1.3992792   878832 
  357000   0.93343562   -3.6558381   -3.6558381   -2.2556863  0.031315944   -3.6558381    1.4001518   878832 
  358000   0.93299312   -3.6547091   -3.6547091    -2.255221  0.031887881   -3.6547091    1.3994881   878832 
  359000   0.93315432   -3.6548046   -3.6548046   -2.2550747  0.032247302   -3.6548046    1.3997299   878832 
  360000   0.93388569   -3.6559084   -3.6559084   -2.2550815  0.031878865   -3.6559084    1.4008269   878832 
  361000   0.93313435   -3.6539677   -3.6539677   -2.2542677  0.034325843   -3.6539677    1.3996999   878832 
  362000   0.93357338   -3.6553486   -3.6553486   -2.2549901  0.030804887   -3.6553486    1.4003585   878832 
  363000   0.93314114   -3.6537547   -3.6537547   -2.2540445  0.035191695   -3.6537547    1.3997101   878832 
  364000   0.93309584   -3.6536754   -3.6536754   -2.2540332  0.033960019   -3.6536754    1.3996422   878832 
  365000    0.9326092   -3.6520142   -3.6520142    -2.253102   0.03478208   -3.6520142    1.3989122   878832 
  366000   0.93432022   -3.6533688   -3.6533688   -2.2518901  0.029435435   -3.6533688    1.4014787   878832 
  367000   0.93307568   -3.6517294   -3.6517294   -2.2521174  0.035976673   -3.6517294    1.3996119   878832 
  368000   0.93396909   -3.6534644   -3.6534644   -2.2525124  0.033499579   -3.6534644     1.400952   878832 
  369000   0.93366817   -3.6529978   -3.6529978   -2.2524971  0.032091633   -3.6529978    1.4005007   878832 
  370000   0.93311755   -3.6513283   -3.6513283   -2.2516536  0.034802683   -3.6513283    1.3996747   878832 
  371000   0.93397681   -3.6530155   -3.6530155   -2.2520519  0.033949395   -3.6530155    1.4009636   878832 
  372000   0.93375848   -3.6518778   -3.6518778   -2.2512417  0.034142171   -3.6518778    1.4006361   878832 
  373000   0.93482104   -3.6527156   -3.6527156   -2.2504856  0.035851776   -3.6527156      1.40223   878832 
  374000   0.93347379   -3.6504697   -3.6504697   -2.2502606  0.034805129   -3.6504697    1.4002091   878832 
  375000   0.93547173   -3.6522208   -3.6522208   -2.2490148  0.031402285   -3.6522208     1.403206   878832 
  376000     0.934522   -3.6515085   -3.6515085   -2.2497271  0.033104079   -3.6515085    1.4017814   878832 
  377000   0.93541019   -3.6517185   -3.6517185   -2.2486048  0.034796832   -3.6517185    1.4031137   878832 
  378000   0.93469612   -3.6516722   -3.6516722   -2.2496296  0.034754145   -3.6516722    1.4020426   878832 
  379000   0.93452162   -3.6512188   -3.6512188    -2.249438  0.035550769   -3.6512188    1.4017808   878832 
  380000   0.93462889   -3.6512351   -3.6512351   -2.2492934  0.033345513   -3.6512351    1.4019417   878832 
  381000   0.93378146    -3.649688    -3.649688   -2.2490174  0.034658644    -3.649688    1.4006706   878832 
  382000   0.93452888   -3.6497196   -3.6497196   -2.2479278  0.035387076   -3.6497196    1.4017917   878832 
  383000   0.93516747   -3.6503265   -3.6503265   -2.2475769  0.033449046   -3.6503265    1.4027496   878832 
  384000   0.93425081    -3.649223    -3.649223   -2.2478483  0.032312303    -3.649223    1.4013746   878832 
  385000   0.93347524   -3.6472205   -3.6472205   -2.2470092  0.032994068   -3.6472205    1.4002113   878832 
  386000   0.93380512   -3.6471194   -3.6471194   -2.2464134  0.033229696   -3.6471194    1.4007061   878832 
  387000   0.93466338   -3.6483271   -3.6483271   -2.2463336  0.032913231   -3.6483271    1.4019935   878832 
  388000    0.9351483   -3.6481905   -3.6481905   -2.2454697  0.034285669   -3.6481905    1.4027208   878832 
  389000    0.9347449   -3.6471871   -3.6471871   -2.2450714  0.035933113   -3.6471871    1.4021158   878832 
  390000   0.93573208   -3.6486452   -3.6486452   -2.2450486  0.032748693   -3.6486452    1.4035965   878832 
  391000   0.93669737   -3.6498154   -3.6498154    -2.244771  0.032045568   -3.6498154    1.4050445   878832 
  392000   0.93636094   -3.6487276   -3.6487276   -2.2441878  0.035351751   -3.6487276    1.4045398   878832 
  393000   0.93569689   -3.6471163   -3.6471163   -2.2435726   0.03541681   -3.6471163    1.4035437   878832 
  394000   0.93536116   -3.6464733   -3.6464733   -2.2434332  0.034410269   -3.6464733    1.4030401   878832 
  395000    0.9341857   -3.6443517   -3.6443517   -2.2430747  0.038198222   -3.6443517    1.4012769   878832 
  396000   0.93520972   -3.6462507   -3.6462507   -2.2434377  0.031217858   -3.6462507     1.402813   878832 
  397000   0.93448799   -3.6442955   -3.6442955   -2.2425651  0.030428673   -3.6442955    1.4017304   878832 
  398000   0.93398036   -3.6432887   -3.6432887   -2.2423198  0.032471808   -3.6432887    1.4009689   878832 
  399000   0.93497249   -3.6440417   -3.6440417   -2.2415846  0.034979815   -3.6440417    1.4024571   878832 
  400000   0.93477148   -3.6446127   -3.6446127   -2.2424571  0.031941069   -3.6446127    1.4021556   878832 
  401000   0.93432524   -3.6440422   -3.6440422   -2.2425559  0.032236476   -3.6440422    1.4014863   878832 
  402000   0.93572213   -3.6452911   -3.6452911   -2.2417095  0.033400566   -3.6452911    1.4035816   878832 
  403000   0.93500577   -3.6442711   -3.6442711    -2.241764   0.03116907   -3.6442711    1.4025071   878832 
  404000   0.93470905   -3.6423629   -3.6423629   -2.2403009  0.032768328   -3.6423629     1.402062   878832 
  405000   0.93506165   -3.6427729   -3.6427729   -2.2401821  0.033312283   -3.6427729    1.4025909   878832 
  406000   0.93501711   -3.6421492   -3.6421492   -2.2396251  0.031044807   -3.6421492    1.4025241   878832 
  407000   0.93494843   -3.6427257   -3.6427257   -2.2403046  0.034174324   -3.6427257    1.4024211   878832 
  408000   0.93607889   -3.6437095   -3.6437095   -2.2395928  0.032870967   -3.6437095    1.4041167   878832 
  409000   0.93531971   -3.6424522   -3.6424522   -2.2394743  0.032790001   -3.6424522     1.402978   878832 
  410000   0.93577065   -3.6418472   -3.6418472   -2.2381928  0.036783536   -3.6418472    1.4036544   878832 
  411000    0.9356255     -3.64139     -3.64139   -2.2379533   0.03351982     -3.64139    1.4034367   878832 
  412000    0.9363922   -3.6422518   -3.6422518   -2.2376651  0.031833463   -3.6422518    1.4045867   878832 
  413000   0.93660289   -3.6415064   -3.6415064   -2.2366036  0.032753371   -3.6415064    1.4049027   878832 
  414000   0.93629776   -3.6416016   -3.6416016   -2.2371565  0.032481843   -3.6416016     1.404445   878832 
  415000    0.9356603   -3.6410563   -3.6410563   -2.2375675  0.034447903   -3.6410563    1.4034889   878832 
  416000   0.93598723   -3.6412155   -3.6412155   -2.2372362  0.031574767   -3.6412155    1.4039792   878832 
  417000   0.93550488   -3.6401109   -3.6401109   -2.2368552  0.033767255   -3.6401109    1.4032557   878832 
  418000   0.93671763   -3.6421543   -3.6421543   -2.2370794  0.032710484   -3.6421543    1.4050749   878832 
  419000   0.93680707   -3.6415919   -3.6415919   -2.2363829  0.035126918   -3.6415919     1.405209   878832 
  420000   0.93594814   -3.6395173   -3.6395173   -2.2355966  0.033153735   -3.6395173    1.4039206   878832 
  421000   0.93632166   -3.6396551   -3.6396551   -2.2351742  0.033577648   -3.6396551    1.4044809   878832 
  422000   0.93649477   -3.6393286   -3.6393286   -2.2345881  0.034449099   -3.6393286    1.4047406   878832 
  423000   0.93694839   -3.6406162   -3.6406162   -2.2351952  0.034928712   -3.6406162     1.405421   878832 
  424000   0.93733835   -3.6410536   -3.6410536   -2.2350477  0.033061972   -3.6410536    1.4060059   878832 
  425000   0.93685951   -3.6398303   -3.6398303   -2.2345426  0.033792699   -3.6398303    1.4052877   878832 
  426000   0.93708446   -3.6395474   -3.6395474   -2.2339223   0.03184119   -3.6395474    1.4056251   878832 
  427000   0.93695407   -3.6400116   -3.6400116   -2.2345821  0.034530468   -3.6400116    1.4054295   878832 
  428000   0.93618322   -3.6384553   -3.6384553   -2.2341821  0.031208484   -3.6384553    1.4042732   878832 
  429000   0.93615355   -3.6384806   -3.6384806   -2.2342519  0.033234709   -3.6384806    1.4042287   878832 
  430000   0.93703441   -3.6394762   -3.6394762   -2.2339262  0.031884043   -3.6394762      1.40555   878832 
  431000     0.937459   -3.6393153   -3.6393153   -2.2331284  0.034221576   -3.6393153    1.4061869   878832 
  432000    0.9376015   -3.6392452   -3.6392452   -2.2328446  0.033968602   -3.6392452    1.4064006   878832 
  433000   0.93811428   -3.6390844   -3.6390844   -2.2319146  0.034155898   -3.6390844    1.4071698   878832 
  434000   0.93727793   -3.6380501   -3.6380501   -2.2321348  0.037472333   -3.6380501    1.4059153   878832 
  435000   0.93728525   -3.6379983   -3.6379983    -2.232072  0.035424143   -3.6379983    1.4059263   878832 
  436000   0.93657553   -3.6375245   -3.6375245   -2.2326628  0.032118608   -3.6375245    1.4048617   878832 
  437000   0.93696986   -3.6384871   -3.6384871   -2.2330339  0.031342087   -3.6384871    1.4054532   878832 
  438000   0.93798698    -3.638187    -3.638187   -2.2312081  0.032400629    -3.638187    1.4069789   878832 
  439000   0.93755728   -3.6367508   -3.6367508   -2.2304164  0.034650886   -3.6367508    1.4063343   878832 
  440000   0.93787136   -3.6367096   -3.6367096   -2.2299041  0.033571519   -3.6367096    1.4068054   878832 
  441000   0.93803408   -3.6365056   -3.6365056    -2.229456  0.034271026   -3.6365056    1.4070495   878832 
  442000   0.93888861   -3.6370576   -3.6370576   -2.2287263  0.035907579   -3.6370576    1.4083313   878832 
  443000   0.93876021    -3.636893    -3.636893   -2.2287543  0.037305327    -3.636893    1.4081387   878832 
  444000    0.9389812   -3.6363776   -3.6363776   -2.2279074  0.037397872   -3.6363776    1.4084702   878832 
  445000   0.93844134   -3.6347889   -3.6347889   -2.2271285  0.036492813   -3.6347889    1.4076604   878832 
  446000   0.93883787   -3.6358402   -3.6358402    -2.227585  0.033644259   -3.6358402    1.4082552   878832 
  447000   0.93843525   -3.6350562   -3.6350562    -2.227405  0.034735251   -3.6350562    1.4076513   878832 
  448000   0.93764335   -3.6344151   -3.6344151   -2.2279517  0.034427045   -3.6344151    1.4064634   878832 
  449000   0.93742186   -3.6329727   -3.6329727   -2.2268415  0.035027233   -3.6329727    1.4061312   878832 
  450000   0.93667244   -3.6329354   -3.6329354   -2.2279284  0.033941347   -3.6329354    1.4050071   878832 
  451000   0.93733796   -3.6324275   -3.6324275   -2.2264221  0.035827547   -3.6324275    1.4060053   878832 
  452000   0.93653608   -3.6311211   -3.6311211   -2.2263186  0.033720177   -3.6311211    1.4048025   878832 
  453000   0.93689342   -3.6313379   -3.6313379   -2.2259994  0.028796884   -3.6313379    1.4053385   878832 
  454000   0.93742097   -3.6325903   -3.6325903   -2.2264605  0.031069138   -3.6325903    1.4061299   878832 
  455000   0.93704089   -3.6312871   -3.6312871   -2.2257273  0.036628085   -3.6312871    1.4055597   878832 
  456000   0.93804409   -3.6323108   -3.6323108   -2.2252463  0.035918636   -3.6323108    1.4070645   878832 
  457000   0.93775755   -3.6313329   -3.6313329   -2.2246981  0.037298234   -3.6313329    1.4066347   878832 
  458000    0.9387833   -3.6322867   -3.6322867   -2.2241134  0.035287019   -3.6322867    1.4081734   878832 
  459000   0.93792841   -3.6313697   -3.6313697   -2.2244787  0.032349928   -3.6313697     1.406891   878832 
  460000   0.93715931   -3.6301292   -3.6301292   -2.2243919  0.035331004   -3.6301292    1.4057374   878832 
  461000   0.93736114   -3.6300639   -3.6300639   -2.2240238  0.033751966   -3.6300639    1.4060401   878832 
  462000   0.93725727   -3.6292053   -3.6292053    -2.223321  0.033642972   -3.6292053    1.4058843   878832 
  463000   0.93788201    -3.630792    -3.630792   -2.2239706   0.03235625    -3.630792    1.4068214   878832 
  464000   0.93637999   -3.6279368   -3.6279368   -2.2233684   0.03131234   -3.6279368    1.4045684   878832 
  465000   0.93678597   -3.6283214   -3.6283214    -2.223144  0.030491052   -3.6283214    1.4051774   878832 
  466000     0.936186   -3.6264819   -3.6264819   -2.2222045  0.034344735   -3.6264819    1.4042774   878832 
  467000   0.93727683   -3.6277191   -3.6277191   -2.2218054  0.033715234   -3.6277191    1.4059136   878832 
  468000   0.93737671   -3.6265155   -3.6265155    -2.220452  0.033898778   -3.6265155    1.4060635   878832 
  469000    0.9383143   -3.6270669   -3.6270669   -2.2195971  0.035054818   -3.6270669    1.4074698   878832 
  470000   0.93979548   -3.6291179   -3.6291179   -2.2194263  0.033184813   -3.6291179    1.4096916   878832 
  471000   0.93958682   -3.6287102   -3.6287102   -2.2193315  0.036172027   -3.6287102    1.4093786   878832 
  472000   0.93991887   -3.6287575   -3.6287575   -2.2188808  0.035335232   -3.6287575    1.4098767   878832 
  473000   0.93931604   -3.6274551   -3.6274551   -2.2184827  0.032616395   -3.6274551    1.4089725   878832 
  474000   0.93979508   -3.6278229   -3.6278229   -2.2181319  0.033841921   -3.6278229     1.409691   878832 
  475000   0.93926888   -3.6262281   -3.6262281   -2.2173264  0.033989993   -3.6262281    1.4089017   878832 
  476000   0.93819939     -3.62523     -3.62523   -2.2179326  0.035906709     -3.62523    1.4072975   878832 
  477000   0.93914054   -3.6267875   -3.6267875   -2.2180783  0.033403743   -3.6267875    1.4087092   878832 
  478000   0.93775328   -3.6254385   -3.6254385   -2.2188101  0.033793984   -3.6254385    1.4066283   878832 
  479000   0.93831713   -3.6260987   -3.6260987   -2.2186246  0.030319706   -3.6260987    1.4074741   878832 
  480000   0.93774964   -3.6247829   -3.6247829     -2.21816  0.038350602   -3.6247829    1.4066229   878832 
  481000   0.93883084   -3.6255697   -3.6255697   -2.2173251  0.035216523   -3.6255697    1.4082447   878832 
  482000   0.93890759   -3.6252821   -3.6252821   -2.2169223  0.036547813   -3.6252821    1.4083598   878832 
  483000   0.93887082   -3.6245885   -3.6245885   -2.2162838  0.036281812   -3.6245885    1.4083046   878832 
  484000   0.93911837   -3.6255106   -3.6255106   -2.2168347  0.032366339   -3.6255106    1.4086759   878832 
  485000   0.93896452   -3.6240904   -3.6240904   -2.2156452  0.034624759   -3.6240904    1.4084452   878832 
  486000   0.93941047   -3.6244661   -3.6244661    -2.215352  0.034231957   -3.6244661    1.4091141   878832 
  487000   0.93882762   -3.6241292   -3.6241292   -2.2158894  0.036386201   -3.6241292    1.4082398   878832 
  488000   0.93904181   -3.6242547   -3.6242547   -2.2156936  0.034986952   -3.6242547    1.4085611   878832 
  489000   0.93930512   -3.6236369   -3.6236369   -2.2146808  0.037268394   -3.6236369    1.4089561   878832 
  490000   0.93898858   -3.6224767   -3.6224767   -2.2139954  0.035810941   -3.6224767    1.4084813   878832 
  491000   0.93829353   -3.6224777   -3.6224777    -2.215039  0.035656123   -3.6224777    1.4074387   878832 
  492000   0.93928782   -3.6241796   -3.6241796   -2.2152494  0.035058018   -3.6241796    1.4089301   878832 
  493000   0.93925718    -3.623434    -3.623434   -2.2145498  0.035494026    -3.623434    1.4088842   878832 
  494000   0.93976721   -3.6236124   -3.6236124   -2.2139632  0.032094781   -3.6236124    1.4096492   878832 
  495000   0.93835281   -3.6222168   -3.6222168   -2.2146892   0.03215879   -3.6222168    1.4075276   878832 
  496000   0.93955264   -3.6234868   -3.6234868   -2.2141594  0.034807831   -3.6234868    1.4093274   878832 
  497000   0.93974397   -3.6241125   -3.6241125   -2.2144981  0.033594925   -3.6241125    1.4096143   878832 
  498000   0.93963298   -3.6228316   -3.6228316   -2.2133837  0.033903644   -3.6228316    1.4094479   878832 
  499000   0.93883818    -3.620746    -3.620746   -2.2124903  0.039310877    -3.620746    1.4082557   878832 
  500000   0.94034129   -3.6235342   -3.6235342   -2.2130239  0.034158078   -3.6235342    1.4105103   878832 
  501000   0.93900041   -3.6212088   -3.6212088   -2.2127098   0.03341061   -3.6212088     1.408499   878832 
  502000   0.93998484   -3.6226008   -3.6226008   -2.2126252  0.030945753   -3.6226008    1.4099757   878832 
  503000   0.94030492   -3.6225132   -3.6225132   -2.2120575  0.032543621   -3.6225132    1.4104558   878832 
  504000   0.94045867   -3.6219162   -3.6219162   -2.2112298  0.039673598   -3.6219162    1.4106864   878832 
  505000    0.9401657   -3.6218094   -3.6218094   -2.2115625  0.036101876   -3.6218094    1.4102469   878832 
  506000   0.94146151   -3.6217817   -3.6217817   -2.2095911  0.032796502   -3.6217817    1.4121907   878832 
  507000   0.94086467   -3.6208113   -3.6208113    -2.209516  0.038162038   -3.6208113    1.4112954   878832 
  508000   0.94102191   -3.6218084   -3.6218084   -2.2102772  0.038200476   -3.6218084    1.4115313   878832 
  509000   0.94162768   -3.6219997   -3.6219997   -2.2095598  0.035510271   -3.6219997    1.4124399   878832 
  510000   0.94127008    -3.621992    -3.621992   -2.2100885  0.033224112    -3.621992    1.4119035   878832 
  511000   0.94070404   -3.6207146   -3.6207146   -2.2096602   0.03588465   -3.6207146    1.4110545   878832 
  512000   0.94171491   -3.6212811   -3.6212811   -2.2087103  0.034658991   -3.6212811    1.4125708   878832 
  513000    0.9404123    -3.619471    -3.619471   -2.2088542  0.035768982    -3.619471    1.4106168   878832 
  514000   0.94046895   -3.6193858   -3.6193858    -2.208684  0.033532305   -3.6193858    1.4107018   878832 
  515000   0.93950953   -3.6171386   -3.6171386   -2.2078759  0.035402138   -3.6171386    1.4092627   878832 
  516000   0.93963608   -3.6166694   -3.6166694   -2.2072169  0.033111557   -3.6166694    1.4094525   878832 
  517000   0.94088837   -3.6192909   -3.6192909     -2.20796  0.035011328   -3.6192909     1.411331   878832 
  518000   0.94106203   -3.6183136   -3.6183136   -2.2067221  0.034197927   -3.6183136    1.4115914   878832 
  519000   0.94047392   -3.6169142   -3.6169142   -2.2062049  0.034190833   -3.6169142    1.4107093   878832 
  520000   0.94051465   -3.6157321   -3.6157321   -2.2049617  0.036949019   -3.6157321    1.4107704   878832 
  521000   0.94016092   -3.6156655   -3.6156655   -2.2054257  0.039777002   -3.6156655    1.4102398   878832 
  522000   0.94171625   -3.6176864   -3.6176864   -2.2051137  0.034714404   -3.6176864    1.4125728   878832 
  523000   0.94126776    -3.616027    -3.616027   -2.2041269  0.037554821    -3.616027       1.4119   878832 
  524000   0.94159797   -3.6156322   -3.6156322   -2.2032369   0.03488349   -3.6156322    1.4123954   878832 
  525000   0.94216071   -3.6163022   -3.6163022   -2.2030628  0.034609666   -3.6163022    1.4132395   878832 
  526000   0.94096922   -3.6143143   -3.6143143    -2.202862  0.038825679   -3.6143143    1.4114522   878832 
  527000   0.94033756    -3.613456    -3.613456   -2.2029512  0.035708004    -3.613456    1.4105047   878832 
  528000   0.94145142   -3.6149673   -3.6149673   -2.2027918  0.033444236   -3.6149673    1.4121755   878832 
  529000   0.94189981   -3.6145212   -3.6145212   -2.2016731  0.036081385   -3.6145212    1.4128481   878832 
  530000   0.94167636   -3.6139106   -3.6139106   -2.2013977  0.036428544   -3.6139106    1.4125129   878832 
  531000   0.94096411   -3.6131236   -3.6131236    -2.201679  0.031991451   -3.6131236    1.4114446   878832 
  532000   0.93999963   -3.6115529   -3.6115529   -2.2015551  0.032645437   -3.6115529    1.4099978   878832 
  533000   0.94006157   -3.6114449   -3.6114449   -2.2013542  0.038253337   -3.6114449    1.4100908   878832 
  534000   0.94014383    -3.611477    -3.611477   -2.2012629  0.031798444    -3.611477    1.4102141   878832 
  535000   0.94066425   -3.6121553   -3.6121553   -2.2011605  0.033457156   -3.6121553    1.4109948   878832 
  536000   0.94170348   -3.6133876   -3.6133876    -2.200834  0.032011559   -3.6133876    1.4125536   878832 
  537000   0.94159939   -3.6128416   -3.6128416   -2.2004441  0.030122497   -3.6128416    1.4123975   878832 
  538000    0.9410565   -3.6112831   -3.6112831   -2.1996999  0.032570456   -3.6112831    1.4115831   878832 
  539000   0.94010446   -3.6100446   -3.6100446   -2.1998895  0.034497411   -3.6100446    1.4101551   878832 
  540000   0.94065742   -3.6106113   -3.6106113   -2.1996268  0.036790572   -3.6106113    1.4109845   878832 
  541000   0.94045472   -3.6099651   -3.6099651   -2.1992846  0.035918426   -3.6099651    1.4106805   878832 
  542000   0.93981788   -3.6094541   -3.6094541   -2.1997289  0.035120684   -3.6094541    1.4097252   878832 
  543000   0.94070288   -3.6105261   -3.6105261   -2.1994734  0.031213966   -3.6105261    1.4110527   878832 
  544000   0.94099202   -3.6103367   -3.6103367   -2.1988503  0.032312657   -3.6103367    1.4114864   878832 
  545000   0.94001589   -3.6091702   -3.6091702    -2.199148  0.034042804   -3.6091702    1.4100222   878832 
  546000   0.94085031    -3.609747    -3.609747   -2.1984731   0.03047277    -3.609747    1.4112739   878832 
  547000   0.94166591   -3.6110529   -3.6110529   -2.1985557  0.028718914   -3.6110529    1.4124973   878832 
  548000   0.94071083   -3.6093573   -3.6093573   -2.1982926  0.031140245   -3.6093573    1.4110646   878832 
  549000   0.94097702   -3.6087229   -3.6087229   -2.1972589  0.033138628   -3.6087229    1.4114639   878832 
  550000   0.94192724   -3.6096053   -3.6096053   -2.1967161  0.035833132   -3.6096053    1.4128893   878832 
  551000   0.94096826   -3.6080701   -3.6080701   -2.1966193  0.031102808   -3.6080701    1.4114508   878832 
  552000   0.94108786   -3.6083057   -3.6083057   -2.1966755  0.035244745   -3.6083057    1.4116302   878832 
  553000   0.94202617   -3.6092669   -3.6092669   -2.1962292  0.034674467   -3.6092669    1.4130376   878832 
  554000   0.94153122   -3.6083182   -3.6083182   -2.1960229  0.032139381   -3.6083182    1.4122952   878832 
  555000   0.94313534   -3.6095677   -3.6095677   -2.1948663   0.03837729   -3.6095677    1.4147014   878832 
  556000   0.94272527   -3.6086237   -3.6086237   -2.1945374  0.034385602   -3.6086237    1.4140863   878832 
  557000   0.94240618   -3.6082195   -3.6082195   -2.1946118  0.036647409   -3.6082195    1.4136077   878832 
  558000   0.94251009   -3.6079428   -3.6079428   -2.1941793  0.040417723   -3.6079428    1.4137635   878832 
  559000   0.94324713   -3.6085739   -3.6085739   -2.1937048   0.03679243   -3.6085739    1.4148691   878832 
  560000   0.94231609   -3.6076106   -3.6076106    -2.194138  0.037717042   -3.6076106    1.4134725   878832 
  561000   0.94323052   -3.6087322   -3.6087322    -2.193888  0.036411371   -3.6087322    1.4148442   878832 
  562000   0.94282607   -3.6080747   -3.6080747   -2.1938372  0.040787247   -3.6080747    1.4142375   878832 
  563000   0.94348952   -3.6093616   -3.6093616    -2.194129  0.036372169   -3.6093616    1.4152327   878832 
  564000   0.94246775   -3.6078105   -3.6078105   -2.1941105  0.035703382   -3.6078105       1.4137   878832 
  565000   0.94311579   -3.6082448   -3.6082448   -2.1935727   0.03519064   -3.6082448    1.4146721   878832 
  566000   0.94357034   -3.6084054   -3.6084054   -2.1930515  0.036229844   -3.6084054    1.4153539   878832 
  567000   0.94295007    -3.607333    -3.607333   -2.1929095  0.036890686    -3.607333    1.4144235   878832 
  568000   0.94258214   -3.6074794   -3.6074794   -2.1936078  0.038554547   -3.6074794    1.4138716   878832 
  569000   0.94244292   -3.6074371   -3.6074371   -2.1937744   0.03835343   -3.6074371    1.4136628   878832 
  570000   0.94265137   -3.6072452   -3.6072452   -2.1932697   0.03905885   -3.6072452    1.4139754   878832 
  571000   0.94284412   -3.6071966   -3.6071966    -2.192932  0.034029985   -3.6071966    1.4142646   878832 
  572000   0.94326425    -3.607018    -3.607018   -2.1921233  0.032016486    -3.607018    1.4148948   878832 
  573000   0.94270533   -3.6067633   -3.6067633   -2.1927069  0.036155435   -3.6067633    1.4140564   878832 
  574000   0.94168119   -3.6039242   -3.6039242    -2.191404  0.034978299   -3.6039242    1.4125202   878832 
  575000   0.94278348   -3.6049767   -3.6049767   -2.1908031  0.032805032   -3.6049767    1.4141736   878832 
  576000   0.94290621   -3.6047986   -3.6047986   -2.1904409  0.031363003   -3.6047986    1.4143577   878832 
  577000    0.9426235   -3.6051984   -3.6051984   -2.1912648  0.028314051   -3.6051984    1.4139336   878832 
  578000   0.94263774   -3.6041634   -3.6041634   -2.1902084  0.036565304   -3.6041634     1.413955   878832 
  579000   0.94285529   -3.6043431   -3.6043431   -2.1900617  0.033800458   -3.6043431    1.4142813   878832 
  580000   0.94302778   -3.6044573   -3.6044573   -2.1899172  0.036269437   -3.6044573    1.4145401   878832 
  581000   0.94332832   -3.6046618   -3.6046618   -2.1896709  0.033659773   -3.6046618    1.4149909   878832 
  582000   0.94397865   -3.6050085   -3.6050085   -2.1890422  0.035633612   -3.6050085    1.4159664   878832 
  583000   0.94274051   -3.6028874   -3.6028874   -2.1887783  0.035170329   -3.6028874    1.4141092   878832 
  584000   0.94398367   -3.6050836   -3.6050836   -2.1891097  0.033128094   -3.6050836    1.4159739   878832 
  585000   0.94286195   -3.6032174   -3.6032174   -2.1889261  0.037367522   -3.6032174    1.4142913   878832 
  586000   0.94259999   -3.6030892   -3.6030892   -2.1891908   0.03382107   -3.6030892    1.4138984   878832 
  587000   0.94211364   -3.6021357   -3.6021357   -2.1889669  0.034942783   -3.6021357    1.4131689   878832 
  588000    0.9426331   -3.6021307   -3.6021307   -2.1881827  0.030208551   -3.6021307     1.413948   878832 
  589000   0.94181127   -3.6012552   -3.6012552   -2.1885399  0.035180145   -3.6012552    1.4127153   878832 
  590000   0.94262386    -3.602597    -3.602597   -2.1886628  0.031686588    -3.602597    1.4139342   878832 
  591000   0.94337777   -3.6024944   -3.6024944   -2.1874294  0.031202472   -3.6024944     1.415065   878832 
  592000   0.94239276   -3.6012004   -3.6012004   -2.1876129  0.037340455   -3.6012004    1.4135875   878832 
  593000   0.94292492   -3.6017235   -3.6017235   -2.1873377  0.038065271   -3.6017235    1.4143858   878832 
  594000   0.94299472   -3.6015151   -3.6015151   -2.1870246  0.031303737   -3.6015151    1.4144905   878832 
  595000   0.94361095   -3.6018062   -3.6018062   -2.1863914   0.03518655   -3.6018062    1.4154148   878832 
  596000   0.94281162   -3.5999935   -3.5999935   -2.1857777  0.040239741   -3.5999935    1.4142158   878832 
  597000   0.94342826   -3.6011876   -3.6011876   -2.1860468  0.034664096   -3.6011876    1.4151408   878832 
  598000   0.94326265   -3.6000297   -3.6000297   -2.1851374  0.034338882   -3.6000297    1.4148924   878832 
  599000   0.94400351    -3.601262    -3.601262   -2.1852584  0.037824639    -3.601262    1.4160037   878832 
  600000   0.94258029   -3.5995553   -3.5995553   -2.1856865  0.037707004   -3.5995553    1.4138688   878832 
  601000   0.94370004   -3.6000989   -3.6000989   -2.1845505  0.036085048   -3.6000989    1.4155484   878832 
  602000   0.94363449   -3.6013573   -3.6013573   -2.1859072  0.034650416   -3.6013573    1.4154501   878832 
  603000    0.9441733   -3.6013989   -3.6013989   -2.1851406  0.032990198   -3.6013989    1.4162583   878832 
  604000    0.9436737   -3.6000196   -3.6000196   -2.1845107  0.036449563   -3.6000196    1.4155089   878832 
  605000   0.94420184   -3.6008273   -3.6008273   -2.1845262  0.032939103   -3.6008273    1.4163011   878832 
  606000   0.94402302   -3.5999302   -3.5999302   -2.1838973  0.035750288   -3.5999302    1.4160329   878832 
  607000   0.94366823   -3.5991453   -3.5991453   -2.1836446  0.036134391   -3.5991453    1.4155007   878832 
  608000    0.9441374   -3.6003299   -3.6003299   -2.1841254  0.036852018   -3.6003299    1.4162045   878832 
  609000   0.94388537   -3.5997471   -3.5997471   -2.1839206  0.033365622   -3.5997471    1.4158264   878832 
  610000    0.9445243   -3.6001125   -3.6001125   -2.1833276  0.037360299   -3.6001125    1.4167848   878832 
  611000   0.94347479   -3.5988871   -3.5988871   -2.1836766  0.036201636   -3.5988871    1.4152106   878832 
  612000   0.94384072   -3.5989425   -3.5989425    -2.183183  0.034263747   -3.5989425    1.4157595   878832 
  613000   0.94412775   -3.5990393   -3.5990393   -2.1828493  0.037574272   -3.5990393      1.41619   878832 
  614000   0.94445499   -3.5996593   -3.5996593   -2.1829784  0.037949455   -3.5996593    1.4166809   878832 
  615000   0.94414332   -3.5984609   -3.5984609   -2.1822475  0.037307211   -3.5984609    1.4162134   878832 
  616000   0.94426383   -3.5984835   -3.5984835   -2.1820893  0.037757007   -3.5984835    1.4163941   878832 
  617000   0.94507899   -3.5993441   -3.5993441   -2.1817272  0.034396642   -3.5993441    1.4176169   878832 
  618000   0.94514533   -3.5996024   -3.5996024   -2.1818861  0.037151017   -3.5996024    1.4177164   878832 
  619000   0.94516006   -3.5993259   -3.5993259   -2.1815874  0.033773433   -3.5993259    1.4177385   878832 
  620000   0.94485731    -3.598754    -3.598754   -2.1814697  0.035456063    -3.598754    1.4172844   878832 
  621000   0.94503001   -3.5991973   -3.5991973   -2.1816539  0.033060128   -3.5991973    1.4175434   878832 
  622000   0.94452791   -3.5979422   -3.5979422    -2.181152  0.035488987   -3.5979422    1.4167902   878832 
  623000   0.94476293    -3.597691    -3.597691   -2.1805482  0.036939359    -3.597691    1.4171428   878832 
  624000   0.94398663   -3.5958782   -3.5958782   -2.1798999  0.035268178   -3.5958782    1.4159783   878832 
  625000   0.94483938   -3.5967613   -3.5967613   -2.1795038  0.034871182   -3.5967613    1.4172575   878832 
  626000   0.94398309    -3.595447    -3.595447    -2.179474  0.032140028    -3.595447     1.415973   878832 
  627000   0.94379009   -3.5948212   -3.5948212   -2.1791377  0.033802368   -3.5948212    1.4156835   878832 
  628000   0.94415933   -3.5956388   -3.5956388   -2.1794014  0.032323644   -3.5956388    1.4162374   878832 
  629000   0.94469612   -3.5948501   -3.5948501   -2.1778075  0.035381602   -3.5948501    1.4170426   878832 
  630000    0.9446184    -3.594454    -3.594454    -2.177528  0.033914211    -3.594454     1.416926   878832 
  631000   0.94555281   -3.5951039   -3.5951039   -2.1767763  0.039094478   -3.5951039    1.4183276   878832 
  632000   0.94526027   -3.5946374   -3.5946374   -2.1767487  0.038951967   -3.5946374    1.4178888   878832 
  633000   0.94562124   -3.5961572   -3.5961572   -2.1777269  0.037220349   -3.5961572    1.4184302   878832 
  634000   0.94497548   -3.5949088   -3.5949088   -2.1774472  0.038149529   -3.5949088    1.4174616   878832 
  635000   0.94472024   -3.5944678   -3.5944678   -2.1773891  0.034290752   -3.5944678    1.4170787   878832 
  636000   0.94434507   -3.5937373   -3.5937373   -2.1772214  0.032601192   -3.5937373     1.416516   878832 
  637000   0.94384315   -3.5922492   -3.5922492   -2.1764861  0.033749563   -3.5922492    1.4157631   878832 
  638000   0.94448384   -3.5928122   -3.5928122    -2.176088  0.038399644   -3.5928122    1.4167242   878832 
  639000    0.9440364   -3.5927281   -3.5927281   -2.1766751  0.032634426   -3.5927281     1.416053   878832 
  640000   0.94395772   -3.5915985   -3.5915985   -2.1756636   0.03493768   -3.5915985     1.415935   878832 
  641000    0.9440239   -3.5910413   -3.5910413   -2.1750071  0.034451542   -3.5910413    1.4160342   878832 
  642000   0.94336521   -3.5908508   -3.5908508   -2.1758045  0.034849074   -3.5908508    1.4150462   878832 
  643000   0.94474591   -3.5923737   -3.5923737   -2.1752564  0.036987794   -3.5923737    1.4171173   878832 
  644000   0.94470585   -3.5925318   -3.5925318   -2.1754746  0.036348182   -3.5925318    1.4170572   878832 
  645000   0.94569686   -3.5925183   -3.5925183   -2.1739746  0.037747943   -3.5925183    1.4185437   878832 
  646000   0.94484692   -3.5914818   -3.5914818    -2.174213  0.036358573   -3.5914818    1.4172688   878832 
  647000   0.94471176   -3.5915682   -3.5915682   -2.1745021  0.037699912   -3.5915682     1.417066   878832 
  648000    0.9464888   -3.5940357   -3.5940357   -2.1743041  0.035259055   -3.5940357    1.4197316   878832 
  649000   0.94478619   -3.5908147   -3.5908147    -2.173637  0.037167044   -3.5908147    1.4171777   878832 
  650000   0.94469857   -3.5902825   -3.5902825   -2.1732363  0.037450969   -3.5902825    1.4170462   878832 
  651000   0.94620116   -3.5916271   -3.5916271    -2.172327  0.035398293   -3.5916271    1.4193001   878832 
  652000    0.9452656   -3.5905361   -3.5905361   -2.1726393  0.037936897   -3.5905361    1.4178968   878832 
  653000   0.94520318   -3.5907504   -3.5907504   -2.1729472  0.035280687   -3.5907504    1.4178032   878832 
  654000   0.94586356   -3.5905336   -3.5905336   -2.1717399  0.033639007   -3.5905336    1.4187937   878832 
  655000   0.94500742   -3.5894573   -3.5894573   -2.1719478  0.038331971   -3.5894573    1.4175095   878832 
  656000   0.94516603   -3.5889387   -3.5889387   -2.1711913  0.038819942   -3.5889387    1.4177474   878832 
  657000   0.94556787   -3.5901535   -3.5901535   -2.1718033   0.03899585   -3.5901535    1.4183502   878832 
  658000   0.94674919   -3.5910607   -3.5910607   -2.1709385  0.037771128   -3.5910607    1.4201222   878832 
  659000   0.94677745    -3.590915    -3.590915   -2.1707505  0.038515318    -3.590915    1.4201646   878832 
  660000   0.94589815   -3.5896449   -3.5896449   -2.1707993  0.040813507   -3.5896449    1.4188456   878832 
  661000   0.94705921   -3.5913199   -3.5913199   -2.1707327  0.036380931   -3.5913199    1.4205872   878832 
  662000   0.94520789   -3.5884725   -3.5884725   -2.1706623   0.03528044   -3.5884725    1.4178102   878832 
  663000   0.94592094   -3.5893827   -3.5893827   -2.1705029  0.034401059   -3.5893827    1.4188798   878832 
  664000   0.94514717   -3.5878854   -3.5878854   -2.1701662  0.037303841   -3.5878854    1.4177191   878832 
  665000   0.94448518   -3.5871834   -3.5871834   -2.1704572    0.0353771   -3.5871834    1.4167262   878832 
  666000   0.94562348   -3.5875918   -3.5875918   -2.1691582  0.038620191   -3.5875918    1.4184336   878832 
  667000   0.94519185   -3.5875884   -3.5875884   -2.1698022  0.031917363   -3.5875884    1.4177862   878832 
  668000   0.94567917   -3.5874397   -3.5874397   -2.1689226  0.037232253   -3.5874397    1.4185171   878832 
  669000   0.94593836   -3.5881476   -3.5881476   -2.1692417  0.036171371   -3.5881476    1.4189059   878832 
  670000    0.9451195   -3.5864708   -3.5864708   -2.1687931  0.038504371   -3.5864708    1.4176776   878832 
  671000   0.94550982   -3.5866037   -3.5866037   -2.1683406    0.0346905   -3.5866037    1.4182631   878832 
  672000   0.94609085   -3.5870828   -3.5870828   -2.1679481  0.039033522   -3.5870828    1.4191347   878832 
  673000   0.94710303   -3.5870136   -3.5870136   -2.1663607  0.036013415   -3.5870136    1.4206529   878832 
  674000   0.94679162   -3.5859285   -3.5859285   -2.1657427  0.040932518   -3.5859285    1.4201858   878832 
  675000   0.94631856   -3.5865425   -3.5865425   -2.1670663  0.033271947   -3.5865425    1.4194762   878832 
  676000   0.94576536    -3.585722    -3.585722   -2.1670756  0.035307345    -3.585722    1.4186464   878832 
  677000   0.94551453    -3.584819    -3.584819   -2.1665488  0.032981397    -3.584819    1.4182702   878832 
  678000   0.94617386   -3.5857017   -3.5857017   -2.1664425  0.034456286   -3.5857017    1.4192592   878832 
  679000   0.94525184   -3.5835932   -3.5835932    -2.165717  0.029751073   -3.5835932    1.4178761   878832 
  680000   0.94430369   -3.5825969   -3.5825969    -2.166143  0.033640596   -3.5825969    1.4164539   878832 
  681000   0.94486861   -3.5828203   -3.5828203    -2.165519  0.037773755   -3.5828203    1.4173013   878832 
  682000   0.94531781   -3.5833657   -3.5833657   -2.1653906   0.03403897   -3.5833657    1.4179751   878832 
  683000    0.9461453   -3.5836367   -3.5836367   -2.1644203   0.03502994   -3.5836367    1.4192163   878832 
  684000   0.94553654   -3.5825812   -3.5825812    -2.164278  0.035338196   -3.5825812    1.4183032   878832 
  685000   0.94557586   -3.5830773   -3.5830773   -2.1647151  0.038748514   -3.5830773    1.4183622   878832 
  686000    0.9458991   -3.5838393   -3.5838393   -2.1649922   0.03556313   -3.5838393     1.418847   878832 
  687000   0.94600975   -3.5834239   -3.5834239   -2.1644109  0.034397978   -3.5834239     1.419013   878832 
  688000    0.9452617   -3.5828063   -3.5828063   -2.1649153  0.036025753   -3.5828063    1.4178909   878832 
  689000   0.94553696    -3.583333    -3.583333   -2.1650291  0.031744883    -3.583333    1.4183038   878832 
  690000   0.94596757   -3.5834036   -3.5834036   -2.1644538  0.036478592   -3.5834036    1.4189497   878832 
  691000   0.94600996   -3.5838114   -3.5838114    -2.164798  0.033383376   -3.5838114    1.4190133   878832 
  692000   0.94640796   -3.5845138   -3.5845138   -2.1649034  0.032599402   -3.5845138    1.4196103   878832 
  693000   0.94539572   -3.5829001   -3.5829001   -2.1648081  0.037011615   -3.5829001     1.418092   878832 
  694000   0.94498658   -3.5821973   -3.5821973    -2.164719  0.034618667   -3.5821973    1.4174783   878832 
  695000   0.94675835   -3.5843043   -3.5843043   -2.1641684  0.034685056   -3.5843043    1.4201359   878832 
  696000   0.94495853   -3.5824945   -3.5824945   -2.1650583  0.037087107   -3.5824945    1.4174362   878832 
  697000   0.94598766   -3.5841349   -3.5841349    -2.165155  0.036609728   -3.5841349    1.4189799   878832 
  698000   0.94619497   -3.5842119   -3.5842119   -2.1649211  0.039285724   -3.5842119    1.4192908   878832 
  699000    0.9462504   -3.5833876   -3.5833876   -2.1640136  0.035862419   -3.5833876     1.419374   878832 
  700000    0.9464891   -3.5850232   -3.5850232   -2.1652912  0.035515977   -3.5850232     1.419732   878832 
  701000   0.94530288   -3.5822961   -3.5822961   -2.1643434  0.037257189   -3.5822961    1.4179527   878832 
  702000   0.94567408   -3.5830553   -3.5830553   -2.1645458  0.035289603   -3.5830553    1.4185095   878832 
  703000   0.94667838   -3.5842294   -3.5842294   -2.1642135  0.033515703   -3.5842294     1.420016   878832 
  704000   0.94590494   -3.5824815   -3.5824815   -2.1636257  0.036449018   -3.5824815    1.4188558   878832 
[...]
 2833000   0.98358877   -3.3719654   -3.3719654   -1.8965839  0.054589613   -3.3719654    1.4753815   878832 
 2834000   0.98434713   -3.3725715   -3.3725715   -1.8960524  0.054250634   -3.3725715     1.476519   878832 
 2835000   0.98335504   -3.3711745   -3.3711745   -1.8961436  0.051781423   -3.3711745    1.4750309   878832 
 2836000   0.98381123   -3.3720616   -3.3720616   -1.8963464  0.053219295   -3.3720616    1.4757152   878832 
 2837000   0.98271033   -3.3703831   -3.3703831   -1.8963193  0.055758691   -3.3703831    1.4740638   878832 
 2838000   0.98413545   -3.3727164   -3.3727164   -1.8965149  0.050142231   -3.3727164    1.4762015   878832 
 2839000   0.98342351   -3.3712096   -3.3712096    -1.896076  0.055451893   -3.3712096    1.4751336   878832 
 2840000   0.98324408    -3.371245    -3.371245   -1.8963806  0.052852329    -3.371245    1.4748644   878832 
 2841000   0.98258605   -3.3698149   -3.3698149   -1.8959375  0.053626178   -3.3698149    1.4738774   878832 
 2842000   0.98274918    -3.370396    -3.370396   -1.8962739   0.05081363    -3.370396    1.4741221   878832 
 2843000   0.98278911   -3.3700143   -3.3700143   -1.8958323  0.052647774   -3.3700143     1.474182   878832 
 2844000   0.98308706   -3.3706082   -3.3706082   -1.8959793  0.052512335   -3.3706082    1.4746289   878832 
 2845000   0.98320499   -3.3717477   -3.3717477   -1.8969419  0.051910887   -3.3717477    1.4748058   878832 
 2846000   0.98280789   -3.3712132   -3.3712132   -1.8970031  0.049352373   -3.3712132    1.4742102   878832 
 2847000   0.98264448   -3.3705414   -3.3705414   -1.8965764  0.054741408   -3.3705414     1.473965   878832 
 2848000   0.98090472   -3.3682982   -3.3682982   -1.8969428  0.052500159   -3.3682982    1.4713554   878832 
 2849000   0.98101217   -3.3680619   -3.3680619   -1.8965453  0.051701705   -3.3680619    1.4715166   878832 
 2850000   0.98159823   -3.3688537   -3.3688537    -1.896458  0.052246572   -3.3688537    1.4723957   878832 
 2851000   0.98251832   -3.3689857   -3.3689857   -1.8952099  0.048593621   -3.3689857    1.4737758   878832 
 2852000   0.98129978   -3.3678325   -3.3678325   -1.8958845  0.051753718   -3.3678325     1.471948   878832 
 2853000   0.98076812   -3.3672224   -3.3672224   -1.8960719  0.046741042   -3.3672224    1.4711505   878832 
 2854000   0.98127942   -3.3680927   -3.3680927   -1.8961752   0.04992281   -3.3680927    1.4719175   878832 
 2855000   0.98161556   -3.3682474   -3.3682474   -1.8958257  0.049020563   -3.3682474    1.4724217   878832 
 2856000   0.98097023   -3.3679506   -3.3679506   -1.8964969  0.052353138   -3.3679506    1.4714537   878832 
 2857000   0.98114466   -3.3682214   -3.3682214   -1.8965061  0.051873755   -3.3682214    1.4717153   878832 
 2858000   0.98207461   -3.3692694   -3.3692694   -1.8961592  0.048849142   -3.3692694    1.4731102   878832 
 2859000   0.98303975   -3.3697364   -3.3697364   -1.8951784  0.051395097   -3.3697364    1.4745579   878832 
 2860000   0.98155902     -3.36805     -3.36805   -1.8957132  0.052825531     -3.36805    1.4723369   878832 
 2861000   0.98178652   -3.3680159   -3.3680159   -1.8953378  0.052958401   -3.3680159    1.4726781   878832 
 2862000   0.98221858    -3.368175    -3.368175   -1.8948488  0.051883513    -3.368175    1.4733262   878832 
 2863000   0.98154145   -3.3667973   -3.3667973   -1.8944868  0.054217074   -3.3667973    1.4723105   878832 
 2864000   0.98213474   -3.3668546   -3.3668546   -1.8936541   0.05405336   -3.3668546    1.4732004   878832 
 2865000   0.98404429   -3.3687612   -3.3687612   -1.8926965  0.055331445   -3.3687612    1.4760648   878832 
 2866000   0.98417121   -3.3700664   -3.3700664   -1.8938112  0.054041883   -3.3700664    1.4762551   878832 
 2867000     0.982353   -3.3685152   -3.3685152   -1.8949873  0.052416556   -3.3685152    1.4735278   878832 
 2868000   0.98395347   -3.3693283   -3.3693283   -1.8933998  0.056994466   -3.3693283    1.4759285   878832 
 2869000   0.98351327   -3.3685471   -3.3685471   -1.8932789  0.054230779   -3.3685471    1.4752682   878832 
 2870000   0.98350774   -3.3690295   -3.3690295   -1.8937696  0.051278566   -3.3690295    1.4752599   878832 
 2871000    0.9839634   -3.3694156   -3.3694156   -1.8934722  0.054678914   -3.3694156    1.4759434   878832 
 2872000   0.98357051   -3.3688781   -3.3688781    -1.893524  0.057839102   -3.3688781    1.4753541   878832 
 2873000   0.98265549   -3.3674726   -3.3674726   -1.8934911  0.055716712   -3.3674726    1.4739816   878832 
 2874000   0.98357667   -3.3685987   -3.3685987   -1.8932354  0.054054906   -3.3685987    1.4753633   878832 
 2875000   0.98366546   -3.3696167   -3.3696167   -1.8941201   0.05111268   -3.3696167    1.4754965   878832 
 2876000   0.98266636   -3.3681561   -3.3681561   -1.8941582  0.055606652   -3.3681561    1.4739979   878832 
 2877000   0.98240722   -3.3681391   -3.3681391   -1.8945299   0.05107567   -3.3681391    1.4736092   878832 
 2878000   0.98269345   -3.3686882   -3.3686882   -1.8946497  0.053177703   -3.3686882    1.4740385   878832 
 2879000   0.98257077   -3.3685301   -3.3685301   -1.8946756  0.053323727   -3.3685301    1.4738545   878832 
 2880000   0.98252999   -3.3675053   -3.3675053    -1.893712   0.05490949   -3.3675053    1.4737933   878832 
 2881000   0.98237281   -3.3677098   -3.3677098   -1.8941522  0.052718343   -3.3677098    1.4735575   878832 
 2882000   0.98302873   -3.3680604   -3.3680604    -1.893519  0.050065765   -3.3680604    1.4745414   878832 
 2883000   0.98238562   -3.3676939   -3.3676939   -1.8941171   0.05446595   -3.3676939    1.4735768   878832 
 2884000   0.98259994   -3.3685313   -3.3685313   -1.8946331  0.051192088   -3.3685313    1.4738982   878832 
 2885000   0.98364456   -3.3685142   -3.3685142    -1.893049  0.054057945   -3.3685142    1.4754652   878832 
 2886000   0.98372673   -3.3684807   -3.3684807   -1.8928923  0.051465102   -3.3684807    1.4755884   878832 
 2887000   0.98377786    -3.368832    -3.368832   -1.8931669  0.055096368    -3.368832    1.4756651   878832 
 2888000   0.98397183   -3.3682452   -3.3682452   -1.8922891  0.055301724   -3.3682452    1.4759561   878832 
 2889000   0.98422924   -3.3690187   -3.3690187   -1.8926765  0.051118752   -3.3690187    1.4763422   878832 
 2890000   0.98460135   -3.3686923   -3.3686923   -1.8917919  0.052181782   -3.3686923    1.4769003   878832 
 2891000   0.98428019   -3.3668376   -3.3668376    -1.890419  0.053838873   -3.3668376    1.4764186   878832 
 2892000    0.9837267   -3.3657206   -3.3657206   -1.8901322  0.053611163   -3.3657206    1.4755884   878832 
 2893000   0.98417438   -3.3662324   -3.3662324   -1.8899726  0.055489487   -3.3662324    1.4762599   878832 
 2894000   0.98449934   -3.3682031   -3.3682031   -1.8914558  0.052370116   -3.3682031    1.4767473   878832 
 2895000    0.9830116   -3.3660329   -3.3660329   -1.8915172  0.054220349   -3.3660329    1.4745157   878832 
 2896000   0.98353943   -3.3668843   -3.3668843   -1.8915769  0.053992553   -3.3668843    1.4753075   878832 
 2897000   0.98372413   -3.3669798   -3.3669798   -1.8913953  0.051419748   -3.3669798    1.4755845   878832 
 2898000   0.98275075   -3.3662811   -3.3662811   -1.8921567  0.051076673   -3.3662811    1.4741244   878832 
 2899000   0.98338418   -3.3663055   -3.3663055   -1.8912309  0.054689429   -3.3663055    1.4750746   878832 
 2900000     0.982397   -3.3644336   -3.3644336   -1.8908397  0.056783364   -3.3644336    1.4735938   878832 
 2901000   0.98188895   -3.3643738   -3.3643738    -1.891542  0.055458618   -3.3643738    1.4728318   878832 
 2902000    0.9836707   -3.3663327   -3.3663327   -1.8908283  0.052710036   -3.3663327    1.4755044   878832 
 2903000   0.98226975   -3.3647507   -3.3647507   -1.8913477  0.053439777   -3.3647507    1.4734029   878832 
 2904000   0.98303081   -3.3657643   -3.3657643   -1.8912198  0.054026103   -3.3657643    1.4745445   878832 
 2905000   0.98274725   -3.3649325   -3.3649325   -1.8908133  0.053242669   -3.3649325    1.4741192   878832 
 2906000   0.98298946    -3.365324    -3.365324   -1.8908415  0.050688694    -3.365324    1.4744825   878832 
 2907000   0.98228232   -3.3643326   -3.3643326   -1.8909108  0.052153466   -3.3643326    1.4734218   878832 
 2908000   0.98266099   -3.3647852   -3.3647852   -1.8907954  0.054929378   -3.3647852    1.4739898   878832 
 2909000   0.98320333   -3.3658576   -3.3658576   -1.8910543  0.053246073   -3.3658576    1.4748033   878832 
 2910000   0.98366948   -3.3652917   -3.3652917   -1.8897892  0.050775333   -3.3652917    1.4755025   878832 
 2911000   0.98257207    -3.363427    -3.363427   -1.8895706   0.05248839    -3.363427    1.4738564   878832 
 2912000    0.9845945   -3.3663215   -3.3663215   -1.8894315  0.057190435   -3.3663215    1.4768901   878832 
 2913000   0.98246742   -3.3637549   -3.3637549   -1.8900554  0.050800018   -3.3637549    1.4736994   878832 
 2914000   0.98363259   -3.3659339   -3.3659339   -1.8904867  0.050665779   -3.3659339    1.4754472   878832 
 2915000   0.98140015   -3.3620698   -3.3620698   -1.8899712  0.052013523   -3.3620698    1.4720986   878832 
 2916000   0.98242274   -3.3639452   -3.3639452   -1.8903128  0.051816933   -3.3639452    1.4736324   878832 
 2917000   0.98168686   -3.3623689   -3.3623689   -1.8898403  0.049525616   -3.3623689    1.4725286   878832 
 2918000   0.98332054   -3.3642689   -3.3642689   -1.8892898  0.054426876   -3.3642689    1.4749791   878832 
 2919000   0.98334267   -3.3646958   -3.3646958   -1.8896835  0.053222712   -3.3646958    1.4750123   878832 
 2920000   0.98252204   -3.3640348   -3.3640348   -1.8902534  0.053330017   -3.3640348    1.4737814   878832 
 2921000   0.98352945   -3.3643371   -3.3643371   -1.8890446  0.051585831   -3.3643371    1.4752925   878832 
 2922000   0.98412971   -3.3657778   -3.3657778   -1.8895849  0.051538255   -3.3657778    1.4761929   878832 
 2923000   0.98353602   -3.3646787   -3.3646787   -1.8893764  0.053478727   -3.3646787    1.4753024   878832 
 2924000   0.98418483   -3.3653981   -3.3653981   -1.8891225  0.054307956   -3.3653981    1.4762756   878832 
 2925000   0.98307333   -3.3636376   -3.3636376   -1.8890293  0.056424076   -3.3636376    1.4746083   878832 
 2926000   0.98413559   -3.3659112   -3.3659112   -1.8897095  0.052126276   -3.3659112    1.4762017   878832 
 2927000   0.98276573   -3.3644577   -3.3644577   -1.8903108  0.049471953   -3.3644577    1.4741469   878832 
 2928000   0.98330289   -3.3655892   -3.3655892   -1.8906366  0.054958793   -3.3655892    1.4749527   878832 
 2929000   0.98273329   -3.3648187   -3.3648187   -1.8907205  0.054361651   -3.3648187    1.4740983   878832 
 2930000   0.98392079   -3.3664037   -3.3664037   -1.8905242  0.051625316   -3.3664037    1.4758795   878832 
 2931000   0.98174424   -3.3636363   -3.3636363   -1.8910216  0.054359824   -3.3636363    1.4726147   878832 
 2932000   0.98366056   -3.3655301   -3.3655301   -1.8900409  0.056067014   -3.3655301    1.4754892   878832 
 2933000   0.98434279   -3.3659652   -3.3659652   -1.8894527  0.054676906   -3.3659652    1.4765125   878832 
 2934000   0.98352747   -3.3660746   -3.3660746   -1.8907851  0.052253737   -3.3660746    1.4752895   878832 
 2935000   0.98334805   -3.3651712   -3.3651712   -1.8901508  0.052484505   -3.3651712    1.4750204   878832 
 2936000   0.98300348   -3.3643981   -3.3643981   -1.8898945  0.050028931   -3.3643981    1.4745035   878832 
 2937000   0.98256985   -3.3634007   -3.3634007   -1.8895476  0.056139615   -3.3634007    1.4738531   878832 
 2938000   0.98395482   -3.3651621   -3.3651621   -1.8892316  0.050979867   -3.3651621    1.4759305   878832 
 2939000   0.98201275   -3.3635729   -3.3635729   -1.8905554  0.053120947   -3.3635729    1.4730175   878832 
 2940000   0.98429767   -3.3661944   -3.3661944   -1.8897496  0.057704885   -3.3661944    1.4764448   878832 
 2941000   0.98331743   -3.3642565   -3.3642565    -1.889282  0.056199666   -3.3642565    1.4749745   878832 
 2942000   0.98393597   -3.3648293   -3.3648293    -1.888927  0.054406952   -3.3648293    1.4759023   878832 
 2943000     0.983189   -3.3642617   -3.3642617   -1.8894799  0.055319533   -3.3642617    1.4747818   878832 
 2944000   0.98248495   -3.3637819   -3.3637819   -1.8900562   0.05681383   -3.3637819    1.4737258   878832 
 2945000   0.98268083   -3.3635975   -3.3635975   -1.8895779   0.05545888   -3.3635975    1.4740196   878832 
 2946000   0.98395852   -3.3651029   -3.3651029   -1.8891668   0.05458608   -3.3651029    1.4759361   878832 
 2947000   0.98361375   -3.3644018   -3.3644018   -1.8889829  0.055346016   -3.3644018    1.4754189   878832 
 2948000   0.98396685   -3.3648282   -3.3648282   -1.8888796  0.053509287   -3.3648282    1.4759486   878832 
 2949000   0.98379287   -3.3641434   -3.3641434   -1.8884558  0.056297426   -3.3641434    1.4756876   878832 
 2950000   0.98419209   -3.3648675   -3.3648675    -1.888581  0.054640495   -3.3648675    1.4762865   878832 
 2951000   0.98381655   -3.3633045   -3.3633045   -1.8875814  0.056328298   -3.3633045    1.4757231   878832 
 2952000   0.98405134   -3.3646983   -3.3646983    -1.888623  0.053739731   -3.3646983    1.4760753   878832 
 2953000   0.98288276   -3.3636221   -3.3636221   -1.8892997  0.055917274   -3.3636221    1.4743225   878832 
 2954000   0.98330662   -3.3655562   -3.3655562   -1.8905979  0.048874541   -3.3655562    1.4749583   878832 
 2955000   0.98168046   -3.3629639   -3.3629639   -1.8904449  0.056918122   -3.3629639     1.472519   878832 
 2956000   0.98336263   -3.3652163   -3.3652163   -1.8901741   0.05209893   -3.3652163    1.4750423   878832 
 2957000   0.98315037   -3.3638683   -3.3638683   -1.8891445  0.050618401   -3.3638683    1.4747239   878832 
 2958000   0.98421761   -3.3646815   -3.3646815   -1.8883568  0.055568476   -3.3646815    1.4763247   878832 
 2959000   0.98412344   -3.3649262   -3.3649262   -1.8887427  0.058752198   -3.3649262    1.4761835   878832 
 2960000   0.98437911   -3.3647078   -3.3647078   -1.8881408  0.053091451   -3.3647078     1.476567   878832 
 2961000   0.98379163   -3.3637128   -3.3637128    -1.888027  0.056315763   -3.3637128    1.4756858   878832 
 2962000   0.98362945   -3.3636414   -3.3636414   -1.8881989   0.06024303   -3.3636414    1.4754425   878832 
 2963000   0.98438587   -3.3641798   -3.3641798   -1.8876027  0.053973088   -3.3641798    1.4765771   878832 
 2964000   0.98484664   -3.3651966   -3.3651966   -1.8879283  0.053163249   -3.3651966    1.4772683   878832 
 2965000   0.98278202   -3.3623339   -3.3623339   -1.8881626   0.05673389   -3.3623339    1.4741713   878832 
 2966000   0.98302888   -3.3625022   -3.3625022   -1.8879605  0.055082235   -3.3625022    1.4745416   878832 
 2967000   0.98341461   -3.3627271   -3.3627271   -1.8876069  0.054182908   -3.3627271    1.4751202   878832 
 2968000    0.9818393   -3.3604001   -3.3604001   -1.8876429  0.052792901   -3.3604001    1.4727573   878832 
 2969000   0.98310186   -3.3625236   -3.3625236   -1.8878725  0.050126086   -3.3625236    1.4746511   878832 
 2970000   0.98311546   -3.3618016   -3.3618016   -1.8871301  0.054609034   -3.3618016    1.4746715   878832 
 2971000   0.98328807   -3.3616784   -3.3616784   -1.8867479  0.055445211   -3.3616784    1.4749304   878832 
 2972000   0.98327845   -3.3611091   -3.3611091   -1.8861931  0.054542297   -3.3611091     1.474916   878832 
 2973000   0.98294955   -3.3604955   -3.3604955   -1.8860729  0.055025639   -3.3604955    1.4744226   878832 
 2974000   0.98368871   -3.3616743   -3.3616743   -1.8861429  0.056410201   -3.3616743    1.4755314   878832 
 2975000   0.98471357   -3.3628131   -3.3628131   -1.8857444   0.05623243   -3.3628131    1.4770687   878832 
 2976000   0.98331235   -3.3614012   -3.3614012   -1.8864343  0.053600471   -3.3614012    1.4749669   878832 
 2977000   0.98350705   -3.3612773   -3.3612773   -1.8860184  0.053557269   -3.3612773    1.4752589   878832 
 2978000   0.98364322   -3.3611905   -3.3611905   -1.8857274  0.052364132   -3.3611905    1.4754631   878832 
 2979000    0.9834231   -3.3603529   -3.3603529   -1.8852199  0.057461677   -3.3603529     1.475133   878832 
 2980000   0.98443319   -3.3601597   -3.3601597   -1.8835116  0.055047671   -3.3601597    1.4766481   878832 
 2981000   0.98482588   -3.3611319   -3.3611319   -1.8838947  0.054263603   -3.3611319    1.4772371   878832 
 2982000   0.98420775   -3.3601708   -3.3601708   -1.8838609  0.050476074   -3.3601708    1.4763099   878832 
 2983000   0.98431634   -3.3606444   -3.3606444   -1.8841716  0.052311741   -3.3606444    1.4764728   878832 
 2984000   0.98393009   -3.3599106   -3.3599106   -1.8840172  0.051140313   -3.3599106    1.4758934   878832 
 2985000   0.98270218   -3.3584293   -3.3584293   -1.8843777  0.054295633   -3.3584293    1.4740516   878832 
 2986000   0.98350523   -3.3600457   -3.3600457   -1.8847896  0.053140362   -3.3600457    1.4752562   878832 
 2987000   0.98298106   -3.3593174   -3.3593174   -1.8848474  0.051851538   -3.3593174    1.4744699   878832 
 2988000   0.98241017   -3.3587433   -3.3587433   -1.8851298  0.049302636   -3.3587433    1.4736136   878832 
 2989000   0.98251893   -3.3589407   -3.3589407    -1.885164  0.053010874   -3.3589407    1.4737767   878832 
 2990000   0.98350827   -3.3601958   -3.3601958    -1.884935  0.049817222   -3.3601958    1.4752607   878832 
 2991000   0.98224298   -3.3592252   -3.3592252   -1.8858624  0.051295481   -3.3592252    1.4733628   878832 
 2992000   0.98227839   -3.3585109   -3.3585109    -1.885095  0.050803339   -3.3585109    1.4734159   878832 
 2993000    0.9826685   -3.3586812   -3.3586812   -1.8846801  0.051212972   -3.3586812    1.4740011   878832 
 2994000   0.98318485   -3.3593586   -3.3593586    -1.884583  0.051219082   -3.3593586    1.4747756   878832 
 2995000   0.98273553   -3.3590513   -3.3590513   -1.8849497  0.051788958   -3.3590513    1.4741016   878832 
 2996000   0.98338955   -3.3590088   -3.3590088   -1.8839261  0.055277769   -3.3590088    1.4750826   878832 
 2997000   0.98286242   -3.3583493   -3.3583493   -1.8840574  0.055575335   -3.3583493     1.474292   878832 
 2998000   0.98462628   -3.3607707   -3.3607707   -1.8838329   0.05292697   -3.3607707    1.4769377   878832 
 2999000   0.98453304   -3.3598174   -3.3598174   -1.8830195  0.053588833   -3.3598174    1.4767979   878832 
 3000000   0.98366181   -3.3586443   -3.3586443   -1.8831532   0.05513012   -3.3586443     1.475491   878832 
Loop time of 33053.7 on 48 procs for 3000000 steps with 878832 atoms

Performance: 39208.913 tau/day, 90.761 timesteps/s
95.5% CPU use with 48 MPI tasks x 1 OpenMP threads

MPI task timing breakdown:
Section |  min time  |  avg time  |  max time  |%varavg|  %CPU | %total
-----------------------------------------------------------------------
Pair    | 11926      | 17227      | 19060      |1574.4 |  99.2 | 52.12
Bond    | 2.4067     | 2.6588     | 3.0435     |   7.9 | 100.0 |  0.01
Neigh   | 6019.8     | 7951.6     | 8464.8     | 814.7 |  99.5 | 24.06
Comm    | 3634.2     | 5739.5     | 13259      |3736.2 |  84.7 | 17.36
Output  | 89.443     | 89.941     | 89.955     |   0.8 |  72.6 |  0.27
Modify  | 1156.8     | 1570       | 3414.1     |1722.7 |  91.8 |  4.75
Other   |            | 472.9      |            |       |       |  1.43

Nlocal:        18309.0 ave       19770 max       16999 min
Histogram: 1 1 0 0 36 8 1 0 0 1
Nghost:        12189.4 ave       13321 max        9042 min
Histogram: 8 4 0 0 0 0 0 0 2 34
Neighs:        514829.0 ave      559302 max      288077 min
Histogram: 2 2 1 1 0 0 0 0 11 31

Total # of neighbors = 24711789
Ave neighs/atom = 28.118900
Ave special neighs/atom = 0.0000000
Neighbor list builds = 299999
Dangerous builds = 296994
System init for write_data ...
WARNING: Not all mixed pair coeffs generated from mixing. Use write_data with 'pair ij' option to store all pair coeffs. (src/write_data.cpp:312)
Total wall time: 9:10:56
