LAMMPS (24 Dec 2020)
OMP_NUM_THREADS environment is not set. Defaulting to 1 thread. (src/comm.cpp:94)
  using 1 OpenMP thread(s) per MPI task
#Read the equilibrated lj fluid and add nanocubes

units           lj
atom_style      full
#atom_modify     map array first cubes
dimension       3
boundary        p p f
pair_style      lj/cut/opt 2.5

variable        sigma           equal 1.0
variable        epsilon         equal 1.0
read_restart	restart.dat.4000000
Reading restart file ...
  restart file = 24 Dec 2020, LAMMPS = 24 Dec 2020
  restoring atom style full from restart
  orthogonal box = (0.0000000 0.0000000 0.0000000) to (80.000000 80.000000 160.00000)
  6 by 4 by 12 MPI processor grid
  restoring pair style lj/cut/opt from restart
  569361 atoms
Finding 1-2 1-3 1-4 neighbors ...
  special bond factors lj:    0        0        0       
  special bond factors coul:  0        0        0       
     0 = max # of 1-2 neighbors
     0 = max # of 1-3 neighbors
     0 = max # of 1-4 neighbors
     1 = max # of special neighbors
  special bonds CPU = 2.510 seconds
  read_restart CPU = 3.088 seconds

group		solvent type 1
426486 atoms in group solvent
group 		hull  type 2
55750 atoms in group hull
group 		dummy type 3
87125 atoms in group dummy

neighbor      0.4 bin
neigh_modify  exclude molecule/intra cubes


pair_modify   shift yes

pair_coeff    1 1 1.0 1.0 #solvent
pair_coeff    2 2 1.0 1.0 1.12 #np
pair_coeff    3 3 0.0 0.0 0.0 #dummy
pair_coeff    2 3 0.0 0.0 0.0 #np dummy
pair_coeff    1 2 ${eps} ${sig} ${nscut} #np solvent
pair_coeff    1 2 1.0 ${sig} ${nscut} 
pair_coeff    1 2 1.0 1.0 ${nscut} 
pair_coeff    1 2 1.0 1.0 4.0 
pair_coeff    1 3 0.0 0.0 0.0 #dummy solvent


comm_modify   mode multi cutoff/multi 1 2.5 cutoff/multi 2 ${nscut} cutoff/multi 3 6.95
comm_modify   mode multi cutoff/multi 1 2.5 cutoff/multi 2 4.0 cutoff/multi 3 6.95

reset_timestep 	0

balance 	1.05 shift z 10 1.05
Balancing ...
Unused restart file global fix info:
  fix style: STORE, fix ID: msd_COMPUTE_STORE
Unused restart file peratom fix info:
  fix style: STORE, fix ID: bin1_COMPUTE_STORE
Neighbor list info ...
  update every 1 steps, delay 10 steps, check yes
  max neighbors/atom: 2000, page size: 100000
  master list distance cutoff = 4.4
  ghost atom cutoff = 6.95
  binsize = 2.2, bins = 37 37 73
  1 neighbor lists, perpetual/occasional/extra = 1 0 0
  (1) pair lj/cut/opt, perpetual
      attributes: half, newton on
      pair build: half/bin/newton
      stencil: half/bin/3d/newton
      bin: standard
 rebalancing time: 0.051 seconds
  iteration count = 5
  initial/final maximal load/proc = 3026.0000 2628.0000
  initial/final imbalance factor  = 1.5306422 1.3293218
  x cuts: 0.0000000 0.16666667 0.33333333 0.50000000 0.66666667 0.83333333 1.0000000
  y cuts: 0.0000000 0.25000000 0.50000000 0.75000000 1.0000000
  z cuts: 0.0000000 0.080729167 0.14843750 0.21093750 0.27343750 0.34114583 0.40104167 0.46354167 0.52604167 0.60937500 0.68229167 0.76562500 1.0000000

####################### WALLS ###########################

variable       epsilonWall equal 2*${epsilon}
variable       epsilonWall equal 2*1
variable       repulsive   equal   0.7147*${sigma}
variable       repulsive   equal   0.7147*1
variable       full	   equal   3*${sigma}
variable       full	   equal   3*1
region         lowWall block EDGE EDGE EDGE EDGE EDGE 2

fix            topWall all wall/lj93 zhi EDGE 	       ${epsilonWall} ${sigma} ${repulsive} units box
fix            topWall all wall/lj93 zhi EDGE 	       2 ${sigma} ${repulsive} units box
fix            topWall all wall/lj93 zhi EDGE 	       2 1 ${repulsive} units box
fix            topWall all wall/lj93 zhi EDGE 	       2 1 0.7147 units box
fix            lowSol solvent wall/lj93 zlo EDGE                ${epsilonWall} ${sigma} ${full} units box
fix            lowSol solvent wall/lj93 zlo EDGE                2 ${sigma} ${full} units box
fix            lowSol solvent wall/lj93 zlo EDGE                2 1 ${full} units box
fix            lowSol solvent wall/lj93 zlo EDGE                2 1 3 units box
fix 	       lowCub cubes wall/lj93 zlo EDGE                ${epsilonWall} ${sigma} ${repulsive} units box
fix 	       lowCub cubes wall/lj93 zlo EDGE                2 ${sigma} ${repulsive} units box
fix 	       lowCub cubes wall/lj93 zlo EDGE                2 1 ${repulsive} units box
fix 	       lowCub cubes wall/lj93 zlo EDGE                2 1 0.7147 units box


###################### COMPUTES ##########################

compute        bin1 solvent chunk/atom bin/1d z lower 1.0 units box


######################  FIXES ############################


fix             peclet solvent ave/chunk 10000 1 10000 bin1 density/number norm                  none ave one file density.profile

fix              temp solvent ave/chunk 10000 1 10000 bin1 temp norm                  none ave one file temp.profile

fix             1 cubes rigid/nve/small molecule #temp ${temp} ${temp} 10
  create bodies CPU = 0.002 seconds
  125 rigid bodies with 142875 atoms
  6.9282032 = max distance from body owner to body atom

fix             2 solvent nve


## Thermostat
region          regthermo block EDGE EDGE EDGE EDGE 0 20
group           thermo dynamic solvent region regthermo every 1000
dynamic group thermo defined
fix             3 thermo langevin ${temp} ${temp} 10 156453
fix             3 thermo langevin 1.0 ${temp} 10 156453
fix             3 thermo langevin 1.0 1.0 10 156453

## Evaporation
region		regevap block EDGE EDGE EDGE EDGE 140 EDGE
fix		4 solvent evaporate ${evap} 1 regevap 156415
fix		4 solvent evaporate 135 1 regevap 156415


#### Load balancing

fix             bal all balance 1000 1.05 shift z 10 1.05

############### Diagnostics and computes ###################

compute        	com cubes          rigid/local   1 mol x y z
compute        	quat cubes         rigid/local   1 mol quatw quati quatj quatk

compute 	cc2 cubes 	   chunk/atom 	 molecule
compute 	msd cubes 	   msd/chunk 	 cc2

fix 		msd all ave/time  1 1 10000 c_msd[*] file dump.msd ave one mode vector

dump            1 all custom 500000 dump.lammpstrj id mol type x y z
dump		cubetrj hull custom 500000 cubes.lammpstrj id mol type x y z
dump            com cubes local 10000 dump.*.xyz c_com[*]
dump	        xyz hull xyz 100000 cubes.xyz
dump            quat cubes      local 10000 dump.*.quat c_quat[*]
#dump		mol cubes molfile 10000 mol.xyz xyz


dump            2 all image 10000 image.*.png type type
dump_modify     2 pad 8
dump		image cubes image 10000 image_cubes.*.png type type
dump_modify	image pad 8
dump            3 all movie 5000 movie.avi type type
dump		4 cubes movie 5000 movie_cubes.avi type type


thermo          1000
thermo_style    custom step temp epair evdwl etotal press pe ke atoms

restart         1000000 restart1.dat restart2.dat
timestep        0.005
timer           full
New timer settings: style=full  mode=nosync  timeout=off

run 		20000000
Per MPI rank memory allocation (min/avg/max) = 15.46 | 20.54 | 24.49 Mbytes
Step Temp E_pair E_vdwl TotEng Press PotEng KinEng Atoms 
       0    1.0062313   -2.7767937   -2.7767937    -1.645541  0.062233491   -2.7767937    1.1312527   569361 
    1000     1.005985   -2.7765612   -2.7765612   -1.6455715  0.058855573   -2.7765612    1.1309897   569354 
    2000    1.0049864   -2.7773354   -2.7773354   -1.6474545  0.057114969   -2.7773354    1.1298809   569347 
    3000    1.0037609   -2.7762794   -2.7762794   -1.6477605  0.071048279   -2.7762794    1.1285189   569339 
    4000    1.0047091   -2.7770028   -2.7770028   -1.6474039  0.060813721   -2.7770028    1.1295989   569332 
    5000    1.0046698   -2.7762995   -2.7762995   -1.6467289  0.072255212   -2.7762995    1.1295706   569324 
    6000    1.0044973   -2.7756218   -2.7756218   -1.6462313  0.065466189   -2.7756218    1.1293905   569317 
    7000    1.0031991   -2.7747906   -2.7747906   -1.6468457  0.063783958   -2.7747906    1.1279448   569310 
    8000    1.0035627   -2.7757793   -2.7757793   -1.6474099   0.06968238   -2.7757793    1.1283695   569302 
    9000    1.0021696   -2.7740322   -2.7740322   -1.6472152   0.07282168   -2.7740322     1.126817   569295 
   10000    1.0045019   -2.7761063   -2.7761063    -1.646651  0.063277576   -2.7761063    1.1294553   569287 
   11000    1.0034555   -2.7753244   -2.7753244   -1.6470318  0.059311301   -2.7753244    1.1282925   569280 
   12000    1.0045737   -2.7765415   -2.7765415   -1.6469777  0.061417234   -2.7765415    1.1295638   569273 
   13000    1.0053631   -2.7776459   -2.7776459   -1.6471787   0.07031933   -2.7776459    1.1304672   569265 
   14000    1.0035822   -2.7751739   -2.7751739   -1.6466953  0.073190719   -2.7751739    1.1284786   569258 
   15000    1.0043195   -2.7761143   -2.7761143   -1.6467907  0.064510058   -2.7761143    1.1293236   569250 
   16000     1.004773   -2.7760642   -2.7760642   -1.6462168  0.062614092   -2.7760642    1.1298473   569243 
   17000    1.0053255   -2.7758093   -2.7758093   -1.6453268  0.064756977   -2.7758093    1.1304825   569236 
   18000    1.0043846   -2.7764642   -2.7764642   -1.6470239  0.068159365   -2.7764642    1.1294403   569228 
   19000    1.0026325   -2.7746264   -2.7746264   -1.6471424  0.057075416   -2.7746264     1.127484   569221 
   20000    1.0033353   -2.7755813   -2.7755813   -1.6472911   0.06683177   -2.7755813    1.1282902   569213 
   21000    1.0033644   -2.7762616   -2.7762616   -1.6479248  0.072570693   -2.7762616    1.1283367   569206 
   22000    1.0044563     -2.77644     -2.77644   -1.6468615  0.066524314     -2.77644    1.1295785   569199 
   23000     1.005501   -2.7772393   -2.7772393   -1.6464701  0.066343844   -2.7772393    1.1307693   569191 
   24000    1.0040865   -2.7751901   -2.7751901   -1.6459976  0.070296471   -2.7751901    1.1291925   569184 
   25000    1.0037017   -2.7762145   -2.7762145   -1.6474389  0.063286552   -2.7762145    1.1287756   569176 
   26000    1.0049311   -2.7767337   -2.7767337   -1.6465617   0.08128861   -2.7767337     1.130172   569169 
   27000    1.0050045   -2.7771722   -2.7771722   -1.6469017  0.065204889   -2.7771722    1.1302705   569161 
   28000    1.0041853   -2.7760667   -2.7760667   -1.6467036  0.079295046   -2.7760667    1.1293631   569154 
   29000    1.0051201   -2.7768446   -2.7768446   -1.6464162  0.062830745   -2.7768446    1.1304284   569147 
   30000    1.0044173   -2.7762075   -2.7762075   -1.6465537  0.067640676   -2.7762075    1.1296538   569139 
   31000    1.0025976   -2.7747367   -2.7747367   -1.6471157  0.068147929   -2.7747367     1.127621   569132 
   32000    1.0045561   -2.7765078   -2.7765078   -1.6466681  0.066394548   -2.7765078    1.1298397   569124 
   33000    1.0030997   -2.7755684   -2.7755684   -1.6473529  0.061746644   -2.7755684    1.1282155   569117 
   34000    1.0038724   -2.7759473   -2.7759473   -1.6468488  0.069173604   -2.7759473    1.1290985   569110 
   35000    1.0029516   -2.7748291   -2.7748291   -1.6467505  0.067903826   -2.7748291    1.1280786   569102 
   36000    1.0031807   -2.7740954   -2.7740954   -1.6457451  0.066964415   -2.7740954    1.1283503   569095 
   37000    1.0042973   -2.7757379   -2.7757379   -1.6461158  0.058401856   -2.7757379     1.129622   569087 
   38000    1.0043095   -2.7752532   -2.7752532   -1.6456036  0.069775431   -2.7752532    1.1296497   569080 
   39000    1.0031815   -2.7741867   -2.7741867   -1.6457919  0.065298201   -2.7741867    1.1283948   569073 
   40000    1.0034471   -2.7744483   -2.7744483   -1.6457389  0.075549317   -2.7744483    1.1287094   569065 
   41000    1.0043219   -2.7758667   -2.7758667   -1.6461595  0.063444639   -2.7758667    1.1297072   569058 
   42000    1.0023299   -2.7737133   -2.7737133   -1.6462309  0.065742572   -2.7737133    1.1274825   569050 
   43000    1.0025185   -2.7734112   -2.7734112   -1.6457027  0.061783088   -2.7734112    1.1277084   569043 
   44000    1.0038666   -2.7749211   -2.7749211   -1.6456823  0.063979966   -2.7749211    1.1292388   569036 
   45000    1.0025493   -2.7727617   -2.7727617   -1.6449889   0.06271722   -2.7727617    1.1277728   569028 
   46000    1.0047983   -2.7753068   -2.7753068   -1.6449901  0.063087385   -2.7753068    1.1303167   569021 
   47000     1.002275   -2.7741133   -2.7741133   -1.6466193  0.063197562   -2.7741133     1.127494   569013 
   48000    1.0034624   -2.7757925   -2.7757925   -1.6469489  0.067063287   -2.7757925    1.1288436   569006 
   49000    1.0036037   -2.7748266   -2.7748266   -1.6458102  0.066288499   -2.7748266    1.1290164   568999 
   50000    1.0036634   -2.7751833   -2.7751833   -1.6460837  0.067220941   -2.7751833    1.1290995   568991 
   51000    1.0028811   -2.7749889   -2.7749889   -1.6467556  0.061069388   -2.7749889    1.1282333   568984 
   52000    1.0019411   -2.7743446   -2.7743446   -1.6471529  0.072384688   -2.7743446    1.1271917   568976 
   53000    1.0032401   -2.7753429   -2.7753429   -1.6466759  0.062007945   -2.7753429     1.128667   568969 
   54000    1.0012783   -2.7741504   -2.7741504   -1.6476747  0.062319178   -2.7741504    1.1264757   568961 
   55000    1.0019916   -2.7738862   -2.7738862   -1.6465941  0.068622349   -2.7738862    1.1272921   568954 
   56000    1.0037091   -2.7758516   -2.7758516   -1.6466133  0.065038915   -2.7758516    1.1292383   568947 
   57000    1.0033187   -2.7755992   -2.7755992   -1.6467844  0.066548523   -2.7755992    1.1288148   568939 
   58000     1.003958    -2.776687    -2.776687    -1.647139  0.060323665    -2.776687    1.1295481   568932 
   59000    1.0042491   -2.7760106   -2.7760106   -1.6461191  0.064990373   -2.7760106    1.1298915   568924 
   60000    1.0029125   -2.7756553   -2.7756553   -1.6472538   0.06040707   -2.7756553    1.1284015   568917 
   61000     1.004038   -2.7766171   -2.7766171   -1.6469353  0.059307916   -2.7766171    1.1296818   568910 
   62000    1.0039007   -2.7759895   -2.7759895   -1.6464464  0.064923752   -2.7759895    1.1295432   568902 
   63000    1.0045579   -2.7759975   -2.7759975    -1.645701  0.064892372   -2.7759975    1.1302964   568895 
   64000    1.0019119   -2.7730254   -2.7730254   -1.6456903  0.064945285   -2.7730254    1.1273352   568887 
   65000    1.0037372   -2.7747366   -2.7747366   -1.6453338  0.068037261   -2.7747366    1.1294028   568880 
   66000    1.0054725   -2.7768083   -2.7768083   -1.6454389  0.067496524   -2.7768083    1.1313693   568873 
   67000     1.003726   -2.7755781   -2.7755781   -1.6461581  0.065473288   -2.7755781      1.12942   568865 
   68000    1.0035105   -2.7747544   -2.7747544    -1.645563  0.068820483   -2.7747544    1.1291915   568858 
   69000    1.0064982   -2.7789502   -2.7789502    -1.646381  0.064638797   -2.7789502    1.1325693   568850 
   70000    1.0042002   -2.7771115   -2.7771115   -1.6471143  0.064498687   -2.7771115    1.1299973   568843 
   71000    1.0029297   -2.7759515   -2.7759515   -1.6473699  0.070863457   -2.7759515    1.1285815   568836 
   72000    1.0033174   -2.7754986   -2.7754986   -1.6464649  0.062938327   -2.7754986    1.1290337   568828 
   73000    1.0033114   -2.7751476   -2.7751476   -1.6461068  0.074132621   -2.7751476    1.1290409   568821 
   74000    1.0028514   -2.7736663   -2.7736663   -1.6451272  0.075565535   -2.7736663    1.1285391   568813 
   75000    1.0038749   -2.7757789   -2.7757789   -1.6460742  0.067491488   -2.7757789    1.1297048   568806 
   76000    1.0027641   -2.7741624   -2.7741624   -1.6456938  0.069299059   -2.7741624    1.1284686   568799 
   77000    1.0042825   -2.7762849   -2.7762849   -1.6460918  0.068070761   -2.7762849    1.1301932   568791 
   78000    1.0039809   -2.7757053   -2.7757053   -1.6458376  0.054010805   -2.7757053    1.1298677   568784 
   79000    1.0018606   -2.7742195   -2.7742195   -1.6467221   0.05795434   -2.7742195    1.1274974   568776 
   80000    1.0027704   -2.7739296   -2.7739296   -1.6453944  0.077839034   -2.7739296    1.1285352   568769 
   81000    1.0037922   -2.7741507   -2.7741507   -1.6444496  0.062064778   -2.7741507    1.1297011   568761 
   82000    1.0046666   -2.7759766   -2.7759766   -1.6452775  0.068611805   -2.7759766    1.1306991   568754 
   83000     1.004133   -2.7743256   -2.7743256   -1.6442132  0.062321157   -2.7743256    1.1301124   568747 
   84000    1.0036914   -2.7740604   -2.7740604   -1.6444291  0.073031302   -2.7740604    1.1296313   568739 
   85000    1.0043314   -2.7759306   -2.7759306   -1.6455651  0.070016428   -2.7759306    1.1303655   568732 
   86000    1.0018229   -2.7740798   -2.7740798   -1.6465218  0.062899459   -2.7740798     1.127558   568724 
   87000    1.0030252   -2.7746048   -2.7746048   -1.6456797  0.064777121   -2.7746048    1.1289251   568717 
   88000    1.0025059   -2.7729667   -2.7729667   -1.6446122  0.058135323   -2.7729667    1.1283546   568710 
   89000    1.0030172   -2.7743357   -2.7743357   -1.6453898  0.054012432   -2.7743357    1.1289459   568702 
   90000    1.0029657   -2.7734825   -2.7734825   -1.6445806  0.057344451   -2.7734825    1.1289019   568695 
   91000    1.0009448    -2.772578    -2.772578   -1.6459349  0.066667167    -2.772578     1.126643   568687 
   92000     1.001837   -2.7733217   -2.7733217   -1.6456605  0.059156619   -2.7733217    1.1276612   568680 
   93000    1.0019822   -2.7733492   -2.7733492   -1.6455108  0.060638566   -2.7733492    1.1278385   568673 
   94000    1.0027572   -2.7735663   -2.7735663   -1.6448396  0.052041017   -2.7735663    1.1287267   568665 
   95000    1.0012534   -2.7723981   -2.7723981   -1.6453502  0.068490049   -2.7723981    1.1270478   568658 
   96000    1.0017204   -2.7722083   -2.7722083   -1.6446189  0.063215639   -2.7722083    1.1275894   568650 
   97000    1.0013651   -2.7732412   -2.7732412   -1.6460378  0.066990534   -2.7732412    1.1272034   568643 
   98000    1.0038535   -2.7761182   -2.7761182   -1.6460998  0.067017341   -2.7761182    1.1300184   568636 
   99000    1.0019136   -2.7742024   -2.7742024   -1.6463518   0.06630881   -2.7742024    1.1278506   568628 
  100000    1.0013215   -2.7738849   -2.7738849    -1.646687  0.070039125   -2.7738849    1.1271979   568621 
  101000    1.0007465   -2.7736361   -2.7736361   -1.6470696  0.061142184   -2.7736361    1.1265664   568613 
  102000    1.0017732   -2.7748033   -2.7748033   -1.6470671  0.049002517   -2.7748033    1.1277361   568606 
  103000    1.0023897   -2.7754707   -2.7754707   -1.6470266  0.063647053   -2.7754707    1.1284441   568599 
  104000    1.0010083   -2.7741409   -2.7741409   -1.6472362    0.0663105   -2.7741409    1.1269047   568591 
  105000    1.0017368    -2.775503    -2.775503   -1.6477643  0.064639321    -2.775503    1.1277388   568584 
  106000    1.0037722   -2.7767737   -2.7767737   -1.6467276  0.065919313   -2.7767737    1.1300461   568576 
  107000    1.0039284   -2.7776249   -2.7776249    -1.647389  0.066272911   -2.7776249    1.1302359   568569 
  108000    1.0029326   -2.7772676   -2.7772676   -1.6481368   0.06110397   -2.7772676    1.1291307   568561 
  109000     1.002166   -2.7762473   -2.7762473   -1.6479658  0.074844154   -2.7762473    1.1282815   568554 
  110000    1.0043459   -2.7781603   -2.7781603   -1.6474107  0.073851855   -2.7781603    1.1307496   568547 
  111000    1.0047395   -2.7778141   -2.7778141   -1.6466053  0.071118409   -2.7778141    1.1312087   568539 
  112000     1.003613   -2.7762143   -2.7762143     -1.64626  0.081238072   -2.7762143    1.1299543   568532 
  113000    1.0031186   -2.7767199   -2.7767199   -1.6473063  0.081715387   -2.7767199    1.1294136   568524 
  114000    1.0033961   -2.7767806   -2.7767806   -1.6470407  0.066252972   -2.7767806    1.1297399   568517 
  115000    1.0029196   -2.7765226   -2.7765226   -1.6473052  0.066310611   -2.7765226    1.1292173   568510 
  116000    1.0035704   -2.7770295   -2.7770295   -1.6470635  0.062803984   -2.7770295     1.129966   568502 
  117000    1.0018602   -2.7758431   -2.7758431   -1.6477888  0.061568257   -2.7758431    1.1280543   568495 
  118000    1.0026153   -2.7773592   -2.7773592   -1.6484388  0.069922971   -2.7773592    1.1289204   568487 
  119000    1.0034592    -2.777307    -2.777307   -1.6474225  0.070028193    -2.777307    1.1298845   568480 
  120000    1.0010005   -2.7753814   -2.7753814   -1.6482515  0.066579497   -2.7753814    1.1271299   568473 
  121000    1.0031065   -2.7767888   -2.7767888   -1.6472716  0.066885532   -2.7767888    1.1295172   568465 
  122000    1.0017867   -2.7742012   -2.7742012   -1.6461563  0.070475418   -2.7742012    1.1280449   568458 
  123000    1.0043893   -2.7769654   -2.7769654   -1.6459739  0.074393162   -2.7769654    1.1309915   568450 
  124000    1.0014041    -2.774154    -2.774154   -1.6465102   0.06543955    -2.774154    1.1276439   568443 
  125000     1.002861    -2.775777    -2.775777   -1.6464786  0.070737059    -2.775777    1.1292984   568436 
  126000     1.001385   -2.7738686   -2.7738686   -1.6462165  0.061409414   -2.7738686    1.1276521   568428 
  127000    1.0028542   -2.7739831   -2.7739831   -1.6446626  0.070486038   -2.7739831    1.1293205   568421 
  128000    1.0019318   -2.7717192   -2.7717192   -1.6434216  0.074395555   -2.7717192    1.1282977   568413 
  129000    1.0029716   -2.7731172   -2.7731172   -1.6436347   0.06144916   -2.7731172    1.1294825   568406 
  130000    1.0029363    -2.772773    -2.772773   -1.6433164  0.061925178    -2.772773    1.1294566   568399 
  131000    1.0042261   -2.7739516   -2.7739516   -1.6430266  0.063911656   -2.7739516     1.130925   568391 
  132000    1.0018641   -2.7720967   -2.7720967   -1.6438177  0.073143558   -2.7720967     1.128279   568384 
  133000    1.0028577   -2.7731202   -2.7731202   -1.6437064  0.072169748   -2.7731202    1.1294139   568376 
  134000    1.0013496   -2.7727316   -2.7727316   -1.6450023    0.0677481   -2.7727316    1.1277293   568369 
  135000    1.0019535   -2.7717861   -2.7717861   -1.6433607   0.06463153   -2.7717861    1.1284254   568361 
  136000    1.0017321   -2.7707618   -2.7707618    -1.642572  0.064452554   -2.7707618    1.1281898   568354 
  137000    1.0024393   -2.7711738   -2.7711738   -1.6421735  0.065602873   -2.7711738    1.1290003   568347 
  138000    1.0020938   -2.7726712   -2.7726712   -1.6440443  0.063588096   -2.7726712     1.128627   568339 
  139000    1.0012514   -2.7721617   -2.7721617   -1.6444696  0.081373874   -2.7721617    1.1276921   568332 
  140000    1.0020993   -2.7737666   -2.7737666   -1.6451035  0.058569918   -2.7737666     1.128663   568324 
  141000    1.0007758   -2.7714895   -2.7714895   -1.6443033  0.070627776   -2.7714895    1.1271862   568317 
  142000    1.0004674   -2.7711638   -2.7711638    -1.644311  0.063315642   -2.7711638    1.1268528   568310 
  143000    1.0017827   -2.7728988   -2.7728988   -1.6445488  0.067168053   -2.7728988      1.12835   568302 
  144000    1.0022292   -2.7728082   -2.7728082   -1.6439413   0.05805411   -2.7728082    1.1288669   568295 
  145000    1.0019216   -2.7730656   -2.7730656   -1.6445292  0.053448205   -2.7730656    1.1285364   568287 
  146000    1.0014441   -2.7721101   -2.7721101   -1.6440978  0.068662318   -2.7721101    1.1280124   568280 
  147000    1.0012625   -2.7722822   -2.7722822   -1.6444605  0.066309352   -2.7722822    1.1278217   568273 
  148000    1.0005354   -2.7724253   -2.7724253   -1.6454067  0.060867303   -2.7724253    1.1270186   568265 
  149000    1.0025511   -2.7746522   -2.7746522   -1.6453492  0.062979743   -2.7746522     1.129303   568258 
  150000    0.9997835    -2.771152    -2.771152   -1.6449507    0.0748982    -2.771152    1.1262013   568250 
  151000    1.0002065   -2.7722492   -2.7722492   -1.6455575  0.059727908   -2.7722492    1.1266917   568243 
  152000     1.000612   -2.7728013   -2.7728013   -1.6456389  0.066664694   -2.7728013    1.1271624   568236 
  153000    1.0007082   -2.7731021   -2.7731021   -1.6458155  0.060338329   -2.7731021    1.1272866   568228 
  154000    1.0006777   -2.7737316   -2.7737316   -1.6464654  0.062014958   -2.7737316    1.1272662   568221 
  155000   0.99975873    -2.772779    -2.772779   -1.6465322  0.066238057    -2.772779    1.1262468   568213 
  156000    0.9998191   -2.7731013   -2.7731013   -1.6467726  0.058529009   -2.7731013    1.1263287   568206 
  157000    1.0006567   -2.7741627   -2.7741627   -1.6468765   0.05846458   -2.7741627    1.1272862   568199 
  158000   0.99820976   -2.7719403   -2.7719403   -1.6473949  0.063713601   -2.7719403    1.1245454   568191 
  159000     1.000168   -2.7742298   -2.7742298   -1.6474644   0.06411591   -2.7742298    1.1267654   568184 
  160000   0.99948118   -2.7731186   -2.7731186   -1.6471111   0.07554724   -2.7731186    1.1260074   568176 
  161000    1.0001917    -2.774031    -2.774031   -1.6472093  0.077401161    -2.774031    1.1268218   568169 
  162000    1.0022292   -2.7772961   -2.7772961   -1.6481629  0.058937174   -2.7772961    1.1291331   568161 
  163000    1.0028421   -2.7779735   -2.7779735    -1.648136  0.068201377   -2.7779735    1.1298376   568154 
  164000    1.0009076   -2.7763862   -2.7763862   -1.6487141  0.060812256   -2.7763862     1.127672   568147 
  165000    1.0024174    -2.777574    -2.777574   -1.6481851  0.070613728    -2.777574    1.1293889   568139 
  166000    1.0046366   -2.7783378   -2.7783378   -1.6464347  0.071219894   -2.7783378    1.1319032   568132 
  167000    1.0034387   -2.7779583   -2.7779583   -1.6473888   0.06390041   -2.7779583    1.1305695   568124 
  168000    1.0035638   -2.7778979   -2.7778979   -1.6471736   0.06328781   -2.7778979    1.1307243   568117 
  169000     1.002423   -2.7772604   -2.7772604   -1.6478075   0.06494474   -2.7772604    1.1294529   568110 
  170000    1.0009743   -2.7757005   -2.7757005    -1.647864  0.066267055   -2.7757005    1.1278365   568102 
  171000     1.000031   -2.7756992   -2.7756992   -1.6489117  0.062738032   -2.7756992    1.1267875   568095 
  172000   0.99925269   -2.7756293   -2.7756293   -1.6497029  0.058308277   -2.7756293    1.1259264   568087 
  173000    1.0001256   -2.7775337   -2.7775337   -1.6506099  0.057082698   -2.7775337    1.1269238   568080 
  174000   0.99858173   -2.7762875   -2.7762875   -1.6510894  0.075418237   -2.7762875    1.1251981   568073 
  175000   0.99918144   -2.7756274   -2.7756274   -1.6497377  0.070250229   -2.7756274    1.1258897   568065 
  176000   0.99859433   -2.7757243   -2.7757243   -1.6504823  0.060242503   -2.7757243     1.125242   568058 
  177000   0.99875022   -2.7756858   -2.7756858   -1.6502523  0.064398537   -2.7756858    1.1254335   568050 
  178000   0.99982251   -2.7764228   -2.7764228   -1.6497671  0.074337475   -2.7764228    1.1266557   568043 
  179000    1.0005072   -2.7771795   -2.7771795   -1.6497383  0.064812797   -2.7771795    1.1274412   568036 
  180000    1.0004561   -2.7773807   -2.7773807   -1.6499812  0.053927245   -2.7773807    1.1273995   568028 
  181000    1.0004965   -2.7769559   -2.7769559    -1.649497  0.074798021   -2.7769559    1.1274588   568021 
  182000    1.0011614   -2.7776082   -2.7776082   -1.6493842  0.060092462   -2.7776082     1.128224   568013 
  183000    1.0021392   -2.7791378   -2.7791378   -1.6497979  0.064129695   -2.7791378    1.1293399   568006 
  184000    1.0014652   -2.7774002   -2.7774002    -1.648806  0.073893871   -2.7774002    1.1285942   567999 
  185000     1.002162   -2.7779102   -2.7779102   -1.6485149  0.058195727   -2.7779102    1.1293954   567991 
  186000    1.0016887   -2.7766129   -2.7766129    -1.647737  0.063921649   -2.7766129    1.1288759   567984 
  187000     1.000666   -2.7754508   -2.7754508   -1.6477116  0.076286451   -2.7754508    1.1277392   567976 
  188000    1.0016383   -2.7774871   -2.7774871   -1.6486382  0.074017731   -2.7774871    1.1288489   567969 
  189000    1.0012153   -2.7766614   -2.7766614   -1.6482733  0.069788297   -2.7766614    1.1283881   567961 
  190000     1.001225   -2.7769308   -2.7769308   -1.6485179  0.064631127   -2.7769308    1.1284129   567954 
  191000    0.9985787    -2.775185    -2.775185   -1.6497407  0.056984436    -2.775185    1.1254443   567947 
  192000    1.0000888   -2.7769225   -2.7769225   -1.6497603  0.052910772   -2.7769225    1.1271622   567939 
  193000   0.99898786   -2.7754142   -2.7754142    -1.649479  0.061366364   -2.7754142    1.1259352   567932 
  194000   0.99961588   -2.7753644   -2.7753644   -1.6487055   0.05656606   -2.7753644    1.1266589   567924 
  195000   0.99847652   -2.7736986   -2.7736986     -1.64831  0.059706872   -2.7736986    1.1253886   567917 
  196000   0.99860259   -2.7732214   -2.7732214   -1.6476768  0.063065611   -2.7732214    1.1255446   567910 
  197000   0.99887667   -2.7745088   -2.7745088   -1.6486395  0.062261417   -2.7745088    1.1258693   567902 
  198000   0.99807512   -2.7736129   -2.7736129   -1.6486332   0.06081346   -2.7736129    1.1249798   567895 
  199000   0.99902803   -2.7736374   -2.7736374   -1.6475677  0.069092457   -2.7736374    1.1260697   567887 
  200000    1.0004708   -2.7767992   -2.7767992   -1.6490894  0.062709984   -2.7767992    1.1277098   567880 
  201000    1.0002723   -2.7760618   -2.7760618   -1.6485618  0.068941818   -2.7760618       1.1275   567873 
  202000    1.0014531   -2.7776738   -2.7776738   -1.6488269  0.071777744   -2.7776738    1.1288468   567865 
  203000   0.99977638   -2.7757775   -2.7757775   -1.6488067  0.062241484   -2.7757775    1.1269708   567858 
  204000    1.0010735   -2.7757118   -2.7757118    -1.647263  0.067151492   -2.7757118    1.1284488   567850 
  205000    1.0009147   -2.7759422   -2.7759422   -1.6476585  0.066347059   -2.7759422    1.1282837   567843 
  206000    1.0017771    -2.776917    -2.776917   -1.6476473  0.070230618    -2.776917    1.1292697   567836 
  207000    1.0001781   -2.7754402   -2.7754402    -1.647957  0.074576149   -2.7754402    1.1274831   567828 
  208000   0.99881468   -2.7746652   -2.7746652   -1.6487051  0.062291706   -2.7746652    1.1259601   567821 
  209000    1.0004894   -2.7780034   -2.7780034   -1.6501396  0.053599832   -2.7780034    1.1278638   567813 
  210000   0.99795423   -2.7757147   -2.7757147   -1.6506949  0.058192862   -2.7757147    1.1250198   567806 
  211000   0.99879088   -2.7760792   -2.7760792   -1.6501024  0.058447655   -2.7760792    1.1259769   567799 
  212000   0.99757383   -2.7750254   -2.7750254   -1.6504047    0.0528506   -2.7750254    1.1246207   567791 
  213000   0.99934635   -2.7775935   -2.7775935   -1.6509606  0.067665519   -2.7775935    1.1266328   567784 
  214000    0.9988863    -2.776153    -2.776153    -1.650023  0.061007184    -2.776153    1.1261301   567776 
  215000   0.99942332   -2.7760893   -2.7760893   -1.6493399  0.066760462   -2.7760893    1.1267494   567769 
  216000    1.0007068   -2.7771353   -2.7771353    -1.648923  0.065057076   -2.7771353    1.1282123   567761 
  217000    1.0003114   -2.7767992   -2.7767992   -1.6490188  0.076493412   -2.7767992    1.1277804   567754 
  218000    1.0007227   -2.7784994   -2.7784994   -1.6502414  0.068761985   -2.7784994     1.128258   567747 
  219000   0.99949227   -2.7776909   -2.7776909   -1.6508042  0.061063246   -2.7776909    1.1268866   567739 
  220000    1.0000493   -2.7792531   -2.7792531   -1.6517245  0.051162885   -2.7792531    1.1275286   567732 
  221000   0.99986664   -2.7785299   -2.7785299   -1.6511914  0.054648553   -2.7785299    1.1273385   567724 
  222000   0.99940347    -2.777272    -2.777272   -1.6504418  0.066332909    -2.777272    1.1268302   567717 
  223000    1.0008517   -2.7792691   -2.7792691    -1.650792  0.065556077   -2.7792691     1.128477   567710 
  224000   0.99991834    -2.778199    -2.778199   -1.6507585  0.065111079    -2.778199    1.1274405   567702 
  225000    1.0002219   -2.7779113   -2.7779113   -1.6501146  0.069805814   -2.7779113    1.1277967   567695 
  226000    1.0005031    -2.777787    -2.777787   -1.6496574  0.072161875    -2.777787    1.1281296   567687 
  227000    1.0009337   -2.7783727   -2.7783727   -1.6497436  0.065206777   -2.7783727    1.1286291   567680 
  228000    1.0006409   -2.7777547   -2.7777547   -1.6494419  0.075882628   -2.7777547    1.1283128   567673 
  229000    1.0008594   -2.7783759   -2.7783759   -1.6498008  0.068300163   -2.7783759    1.1285751   567665 
  230000    1.0012757   -2.7788729   -2.7788729   -1.6498144  0.066617686   -2.7788729    1.1290585   567658 
  231000    1.0014013   -2.7789065   -2.7789065   -1.6496905  0.068372147   -2.7789065     1.129216   567650 
  232000    1.0005189   -2.7777659   -2.7777659    -1.649531   0.06668243   -2.7777659    1.1282349   567643 
  233000    1.0010163   -2.7780334   -2.7780334   -1.6492237  0.060980387   -2.7780334    1.1288097   567636 
  234000   0.99977867   -2.7760661   -2.7760661   -1.6486361  0.061430011   -2.7760661      1.12743   567628 
  235000   0.99806007    -2.775288    -2.775288   -1.6497822   0.06163246    -2.775288    1.1255058   567621 
  236000    0.9982261   -2.7753171   -2.7753171   -1.6496081  0.062542353   -2.7753171    1.1257089   567613 
  237000   0.99605865   -2.7728315   -2.7728315   -1.6495529  0.069363669   -2.7728315    1.1232785   567606 
  238000    0.9995183   -2.7748328   -2.7748328   -1.6476389  0.055483042   -2.7748328     1.127194   567599 
  239000   0.99738887   -2.7729334   -2.7729334   -1.6481251  0.067687582   -2.7729334    1.1248084   567591 
  240000   0.99899667   -2.7747713   -2.7747713   -1.6481358  0.063864047   -2.7747713    1.1266355   567584 
  241000    0.9982116   -2.7744532   -2.7744532   -1.6486873  0.062301182   -2.7744532     1.125766   567576 
  242000   0.99909485   -2.7748984   -2.7748984   -1.6481224   0.06265893   -2.7748984     1.126776   567569 
  243000    0.9977343   -2.7733355   -2.7733355   -1.6480781  0.062558271   -2.7733355    1.1252574   567561 
  244000    1.0000899   -2.7755906   -2.7755906   -1.6476627  0.056433338   -2.7755906     1.127928   567554 
  245000   0.99821604   -2.7737071   -2.7737071   -1.6478786  0.068113405   -2.7737071    1.1258285   567547 
  246000   0.99851335   -2.7745618   -2.7745618   -1.6483822  0.060853363   -2.7745618    1.1261797   567539 
  247000   0.99842887    -2.774501    -2.774501   -1.6484027  0.070535568    -2.774501    1.1260983   567532 
  248000    1.0002745    -2.775849    -2.775849   -1.6476532  0.067230136    -2.775849    1.1281958   567524 
  249000   0.99929649   -2.7751913   -2.7751913   -1.6480846  0.066958346   -2.7751913    1.1271066   567517 
  250000    1.0000471   -2.7755912   -2.7755912    -1.647624  0.064079938   -2.7755912    1.1279672   567510 
  251000   0.99788471   -2.7726033   -2.7726033   -1.6470592  0.066813586   -2.7726033     1.125544   567502 
  252000   0.99889164   -2.7740182   -2.7740182   -1.6473245  0.069971913   -2.7740182    1.1266937   567495 
  253000   0.99729501   -2.7730416   -2.7730416    -1.648133  0.064186953   -2.7730416    1.1249086   567487 
  254000    0.9971099   -2.7729614   -2.7729614   -1.6482477  0.062762723   -2.7729614    1.1247137   567480 
  255000   0.99737738   -2.7738816   -2.7738816   -1.6488523  0.072280421   -2.7738816    1.1250293   567473 
  256000   0.99769651   -2.7740241   -2.7740241    -1.648619  0.063195311   -2.7740241    1.1254051   567465 
  257000   0.99771836    -2.774113    -2.774113   -1.6486694  0.058489094    -2.774113    1.1254437   567458 
  258000   0.99796256   -2.7739102   -2.7739102   -1.6481752  0.070438292   -2.7739102     1.125735   567450 
  259000     0.998569   -2.7739363   -2.7739363   -1.6475033  0.068402155   -2.7739363     1.126433   567443 
  260000    1.0003679   -2.7761463   -2.7761463   -1.6476701  0.053141212   -2.7761463    1.1284762   567436 
  261000   0.99947858   -2.7761963   -2.7761963   -1.6487075  0.072402385   -2.7761963    1.1274888   567428 
  262000   0.99841077   -2.7743516   -2.7743516   -1.6480534  0.055808386   -2.7743516    1.1262982   567421 
  263000   0.99985166   -2.7752576   -2.7752576   -1.6473181  0.075522861   -2.7752576    1.1279395   567413 
  264000    1.0008135   -2.7768807   -2.7768807   -1.6478422  0.064087671   -2.7768807    1.1290385   567406 
  265000    1.0003807   -2.7767392   -2.7767392    -1.648175  0.063491525   -2.7767392    1.1285642   567399 
  266000   0.99956728   -2.7765415   -2.7765415   -1.6488791  0.061970282   -2.7765415    1.1276624   567391 
  267000    0.9995317   -2.7761608   -2.7761608   -1.6485246  0.065829485   -2.7761608    1.1276362   567384 
  268000    0.9986532   -2.7753411   -2.7753411   -1.6486801  0.075760888   -2.7753411     1.126661   567376 
  269000   0.99747458   -2.7747004   -2.7747004   -1.6493552  0.056335865   -2.7747004    1.1253452   567369 
  270000   0.99684214   -2.7747596   -2.7747596   -1.6501121  0.061626728   -2.7747596    1.1246475   567361 
  271000   0.99849596   -2.7761968   -2.7761968   -1.6496696  0.059535949   -2.7761968    1.1265273   567354 
  272000   0.99767024   -2.7760194   -2.7760194   -1.6504098  0.056967856   -2.7760194    1.1256096   567347 
  273000   0.99899437   -2.7769416   -2.7769416   -1.6498222  0.059285547   -2.7769416    1.1271194   567339 
  274000   0.99640455    -2.773909    -2.773909   -1.6496977  0.071628359    -2.773909    1.1242113   567332 
  275000   0.99875532   -2.7777676   -2.7777676   -1.6508881  0.072661209   -2.7777676    1.1268795   567324 
  276000   0.99852304   -2.7756498   -2.7756498   -1.6490185  0.072225941   -2.7756498    1.1266313   567317 
  277000   0.99927222   -2.7777362   -2.7777362   -1.6502456  0.064076542   -2.7777362    1.1274905   567310 
  278000   0.99893184   -2.7778408   -2.7778408   -1.6507184    0.0567414   -2.7778408    1.1271224   567302 
  279000   0.99810776    -2.776735    -2.776735   -1.6505286  0.077914703    -2.776735    1.1262064   567295 
  280000   0.99708957    -2.776311    -2.776311   -1.6512376   0.06877377    -2.776311    1.1250734   567287 
  281000   0.99840715   -2.7769733   -2.7769733   -1.6503993  0.063167832   -2.7769733     1.126574   567280 
  282000   0.99986449   -2.7786527   -2.7786527   -1.6504204  0.064333282   -2.7786527    1.1282324   567273 
  283000   0.99847986   -2.7764341   -2.7764341   -1.6497483  0.065556672   -2.7764341    1.1266859   567265 
  284000   0.99870723   -2.7771944   -2.7771944    -1.650238  0.068222118   -2.7771944    1.1269563   567258 
  285000    0.9984259   -2.7768454   -2.7768454   -1.6501906  0.071182521   -2.7768454    1.1266548   567250 
  286000   0.99880097   -2.7775144   -2.7775144   -1.6504225  0.062381498   -2.7775144    1.1270919   567243 
  287000   0.99744916   -2.7760285   -2.7760285   -1.6504481  0.066924558   -2.7760285    1.1255804   567236 
  288000   0.99821796   -2.7764184   -2.7764184   -1.6499546  0.062443756   -2.7764184    1.1264638   567228 
  289000   0.99747948   -2.7767442   -2.7767442   -1.6510999  0.066023312   -2.7767442    1.1256443   567221 
  290000   0.99766864   -2.7776702   -2.7776702   -1.6517966  0.064206179   -2.7776702    1.1258737   567213 
  291000   0.99660301   -2.7761365   -2.7761365   -1.6514515  0.063397218   -2.7761365     1.124685   567206 
  292000   0.99613111   -2.7757807   -2.7757807   -1.6516144   0.06060804   -2.7757807    1.1241663   567199 
  293000   0.99762322    -2.777378    -2.777378   -1.6515119  0.064141629    -2.777378    1.1258661   567191 
  294000   0.99675611   -2.7763571   -2.7763571   -1.6514557  0.066006722   -2.7763571    1.1249014   567184 
  295000   0.99811201   -2.7772141   -2.7772141   -1.6507666  0.070863415   -2.7772141    1.1264475   567176 
  296000   0.99704997   -2.7763902   -2.7763902   -1.6511274  0.069414535   -2.7763902    1.1252628   567169 
  297000   0.99723371   -2.7765163   -2.7765163   -1.6510302  0.069576954   -2.7765163     1.125486   567161 
  298000   0.99753195   -2.7765493   -2.7765493   -1.6507128  0.071504411   -2.7765493    1.1258365   567154 
  299000   0.99786951   -2.7762646   -2.7762646   -1.6500332  0.083866044   -2.7762646    1.1262314   567147 
  300000   0.99959764   -2.7784244   -2.7784244   -1.6502267  0.068735998   -2.7784244    1.1281978   567139 
  301000   0.99820003   -2.7771729   -2.7771729   -1.6505387  0.059505749   -2.7771729    1.1266343   567132 
  302000   0.99839593   -2.7779739   -2.7779739   -1.6511026  0.057420123   -2.7779739    1.1268713   567124 
  303000   0.99823918   -2.7777783   -2.7777783   -1.6510701  0.059352335   -2.7777783    1.1267082   567117 
  304000   0.99753109    -2.776612    -2.776612   -1.6506891  0.067096741    -2.776612    1.1259229   567110 
  305000   0.99786403    -2.776953    -2.776953   -1.6506384  0.066630192    -2.776953    1.1263146   567102 
  306000   0.99830726   -2.7769696   -2.7769696   -1.6501408  0.057936933   -2.7769696    1.1268288   567095 
  307000   0.99880075   -2.7776011   -2.7776011   -1.6501994  0.050426911   -2.7776011    1.1274017   567087 
  308000   0.99816865   -2.7765728   -2.7765728   -1.6498706  0.057619725   -2.7765728    1.1267021   567080 
  309000   0.99763262   -2.7766247   -2.7766247   -1.6505138  0.065550315   -2.7766247     1.126111   567073 
  310000    0.9962246   -2.7753961   -2.7753961   -1.6508586  0.058047806   -2.7753961    1.1245375   567065 
  311000   0.99670784   -2.7764068   -2.7764068   -1.6513099  0.062188819   -2.7764068    1.1250969   567058 
  312000   0.99841924    -2.778502    -2.778502   -1.6514574  0.056898546    -2.778502    1.1270446   567050 
  313000   0.99598041   -2.7762414   -2.7762414   -1.6519359  0.063358478   -2.7762414    1.1243055   567043 
  314000   0.99754064   -2.7770334   -2.7770334   -1.6509528  0.058497728   -2.7770334    1.1260806   567036 
  315000   0.99576509   -2.7756159   -2.7756159   -1.6515237  0.070859996   -2.7756159    1.1240921   567028 
  316000   0.99654644   -2.7759084   -2.7759084   -1.6509203  0.066357658   -2.7759084    1.1249881   567021 
  317000   0.99636708   -2.7747197   -2.7747197   -1.6499182  0.060174762   -2.7747197    1.1248015   567013 
  318000    0.9975699    -2.775156    -2.775156   -1.6489828   0.06717788    -2.775156    1.1261732   567006 
  319000   0.99770589    -2.775482    -2.775482   -1.6491414  0.062424215    -2.775482    1.1263407   566999 
  320000   0.99861181   -2.7754839   -2.7754839   -1.6481046  0.062386265   -2.7754839    1.1273793   566991 
  321000    0.9978221   -2.7756466   -2.7756466    -1.649145   0.06275518   -2.7756466    1.1265017   566984 
  322000   0.99588636    -2.773718    -2.773718   -1.6493859  0.066933897    -2.773718    1.1243322   566976 
  323000    0.9993637   -2.7765134   -2.7765134   -1.6482415  0.070580168   -2.7765134    1.1282719   566969 
  324000    0.9978151   -2.7743616   -2.7743616   -1.6478222  0.065899247   -2.7743616    1.1265395   566961 
  325000   0.99800285   -2.7747435   -2.7747435   -1.6479782  0.064278941   -2.7747435    1.1267653   566954 
  326000   0.99800552   -2.7752627   -2.7752627   -1.6484804  0.068139392   -2.7752627    1.1267823   566947 
  327000   0.99805364   -2.7765699   -2.7765699   -1.6497174  0.058596074   -2.7765699    1.1268525   566939 
  328000   0.99836007   -2.7755707   -2.7755707   -1.6483583  0.063874581   -2.7755707    1.1272124   566932 
  329000   0.99776432   -2.7751593   -2.7751593   -1.6486036  0.064777201   -2.7751593    1.1265557   566924 
  330000   0.99841314   -2.7764212   -2.7764212    -1.649119    0.0623541   -2.7764212    1.1273021   566917 
  331000   0.99740922   -2.7762443   -2.7762443   -1.6500617  0.075979137   -2.7762443    1.1261825   566910 
  332000     0.997094   -2.7765627   -2.7765627   -1.6507202  0.046408892   -2.7765627    1.1258425   566902 
  333000   0.99614745   -2.7749611   -2.7749611   -1.6501735  0.061130583   -2.7749611    1.1247876   566895 
  334000   0.99578053   -2.7747478   -2.7747478   -1.6503587  0.065456631   -2.7747478    1.1243892   566887 
  335000   0.99532197    -2.773818    -2.773818   -1.6499327  0.061072125    -2.773818    1.1238853   566880 
  336000   0.99704535   -2.7756215   -2.7756215   -1.6497763  0.058778577   -2.7756215    1.1258452   566873 
  337000   0.99612509   -2.7746033   -2.7746033   -1.6497814  0.058394623   -2.7746033    1.1248219   566865 
  338000   0.99611609   -2.7746164   -2.7746164   -1.6497908  0.063102911   -2.7746164    1.1248256   566858 
  339000   0.99650646   -2.7749863   -2.7749863    -1.649704  0.076411838   -2.7749863    1.1252823   566850 
  340000   0.99618755   -2.7750316   -2.7750316   -1.6500955   0.07269777   -2.7750316    1.1249361   566843 
  341000   0.99659877   -2.7759592   -2.7759592   -1.6505449  0.062285282   -2.7759592    1.1254143   566836 
  342000   0.99668625   -2.7761774   -2.7761774   -1.6506484  0.062944168   -2.7761774     1.125529   566828 
  343000    0.9973301   -2.7768944   -2.7768944   -1.6506244  0.065592366   -2.7768944      1.12627   566821 
  344000   0.99846902   -2.7774763   -2.7774763   -1.6499042   0.06050554   -2.7774763    1.1275721   566813 
  345000   0.99613964   -2.7749567   -2.7749567   -1.6500013  0.057761499   -2.7749567    1.1249554   566806 
  346000   0.99855828   -2.7765958   -2.7765958    -1.648895  0.060196575   -2.7765958    1.1277007   566799 
  347000   0.99740236   -2.7756059   -2.7756059   -1.6491947  0.071470163   -2.7756059    1.1264112   566791 
  348000   0.99822952   -2.7774801   -2.7774801   -1.6501208  0.055833408   -2.7774801    1.1273593   566784 
  349000   0.99727456   -2.7770196   -2.7770196   -1.6507229  0.062504487   -2.7770196    1.1262967   566776 
  350000   0.99634161   -2.7766022   -2.7766022   -1.6513453  0.072862222   -2.7766022     1.125257   566769 
  351000   0.99535844    -2.776489    -2.776489   -1.6523266  0.068710381    -2.776489    1.1241624   566761 
  352000   0.99692435   -2.7775909   -2.7775909    -1.651646  0.056797956   -2.7775909    1.1259449   566754 
  353000   0.99620218    -2.776479    -2.776479   -1.6513358  0.065487362    -2.776479    1.1251431   566747 
  354000   0.99573998   -2.7760988   -2.7760988   -1.6514618  0.072536026   -2.7760988     1.124637   566739 
  355000   0.99524087   -2.7761996   -2.7761996   -1.6521125  0.074085874   -2.7761996    1.1240872   566732 
  356000   0.99609625   -2.7770565   -2.7770565   -1.6519873  0.067981775   -2.7770565    1.1250692   566724 
  357000   0.99501634   -2.7766783   -2.7766783    -1.652815  0.061002027   -2.7766783    1.1238633   566717 
  358000   0.99837265   -2.7795836   -2.7795836   -1.6519154  0.067782792   -2.7795836    1.1276682   566710 
  359000   0.99733944   -2.7791787   -2.7791787   -1.6526617  0.069269907   -2.7791787    1.1265171   566702 
  360000   0.99796709   -2.7786454   -2.7786454   -1.6514055  0.064938674   -2.7786454    1.1272399   566695 
  361000   0.99711551   -2.7773147   -2.7773147   -1.6510208  0.059798364   -2.7773147    1.1262939   566687 
  362000   0.99602311   -2.7755247   -2.7755247   -1.6504508  0.067977186   -2.7755247    1.1250739   566680 
  363000     0.998107    -2.778007    -2.778007   -1.6505652  0.070346118    -2.778007    1.1274417   566673 
  364000   0.99694154   -2.7766095   -2.7766095   -1.6504684  0.063048246   -2.7766095    1.1261411   566665 
  365000   0.99646979    -2.776445    -2.776445   -1.6508229  0.069158542    -2.776445    1.1256222   566658 
  366000   0.99494565   -2.7753113   -2.7753113    -1.651395  0.068803639   -2.7753113    1.1239163   566650 
  367000   0.99776741   -2.7783273   -2.7783273   -1.6512095  0.064165531   -2.7783273    1.1271178   566643 
  368000   0.99828587   -2.7781096   -2.7781096   -1.6503922  0.066951109   -2.7781096    1.1277174   566636 
  369000   0.99702127   -2.7772425   -2.7772425   -1.6509377   0.07873236   -2.7772425    1.1263047   566628 
  370000   0.99403393    -2.774278    -2.774278   -1.6513341  0.068690406    -2.774278    1.1229439   566621 
  371000   0.99624107   -2.7767123   -2.7767123   -1.6512591  0.053186124   -2.7767123    1.1254532   566613 
  372000   0.99541314   -2.7763534   -2.7763534   -1.6518216  0.057701128   -2.7763534    1.1245318   566606 
  373000   0.99676367   -2.7771031   -2.7771031   -1.6510318  0.073666579   -2.7771031    1.1260714   566599 
  374000   0.99537662   -2.7763464   -2.7763464   -1.6518261  0.073631937   -2.7763464    1.1245203   566591 
  375000   0.99416609   -2.7752561   -2.7752561   -1.6520895  0.064237841   -2.7752561    1.1231666   566584 
  376000   0.99638317   -2.7773609   -2.7773609   -1.6516737  0.062499305   -2.7773609    1.1256872   566576 
  377000   0.99493764   -2.7765719   -2.7765719   -1.6525039  0.062705771   -2.7765719     1.124068   566569 
  378000   0.99454646   -2.7763719   -2.7763719     -1.65273  0.065553307   -2.7763719    1.1236419   566561 
  379000   0.99530769   -2.7759935   -2.7759935   -1.6514776   0.07509417   -2.7759935    1.1245158   566554 
  380000   0.99700363   -2.7777557   -2.7777557   -1.6513098  0.059776976   -2.7777557    1.1264458   566547 
  381000   0.99624045   -2.7782564   -2.7782564   -1.6526569  0.062780439   -2.7782564    1.1255995   566539 
  382000   0.99548969   -2.7767318   -2.7767318   -1.6519667  0.069235203   -2.7767318    1.1247651   566532 
  383000   0.99517514   -2.7759642   -2.7759642   -1.6515386  0.074542086   -2.7759642    1.1244256   566524 
  384000   0.99579834    -2.776808    -2.776808   -1.6516643  0.078493676    -2.776808    1.1251437   566517 
  385000   0.99634008   -2.7772018   -2.7772018   -1.6514322  0.061249459   -2.7772018    1.1257697   566510 
  386000   0.99723133   -2.7780712   -2.7780712   -1.6512786  0.062103125   -2.7780712    1.1267926   566502 
  387000   0.99568054   -2.7766254   -2.7766254   -1.6515712  0.060894362   -2.7766254    1.1250542   566495 
  388000   0.99361523   -2.7754114   -2.7754114   -1.6526749  0.066798868   -2.7754114    1.1227364   566487 
  389000   0.99634643   -2.7786444   -2.7786444   -1.6528079  0.055067411   -2.7786444    1.1258365   566480 
  390000   0.99675519   -2.7786835   -2.7786835   -1.6523713  0.063123805   -2.7786835    1.1263123   566473 
  391000   0.99657569    -2.778724    -2.778724   -1.6525987   0.05891684    -2.778724    1.1261253   566465 
  392000    0.9971819   -2.7784296   -2.7784296   -1.6516053  0.062801545   -2.7784296    1.1268243   566458 
  393000   0.99746344   -2.7794345   -2.7794345   -1.6522761  0.064003554   -2.7794345    1.1271583   566450 
  394000   0.99823107   -2.7795071   -2.7795071   -1.6514673  0.062902753   -2.7795071    1.1280397   566443 
  395000   0.99559941    -2.777337    -2.777337   -1.6522572  0.065687251    -2.777337    1.1250798   566436 
  396000    0.9968182   -2.7787639   -2.7787639   -1.6522909  0.073402194   -2.7787639     1.126473   566428 
  397000   0.99589434   -2.7777623   -2.7777623   -1.6523195  0.071442316   -2.7777623    1.1254428   566421 
  398000    0.9956231   -2.7787924   -2.7787924   -1.6536402  0.071431448   -2.7787924    1.1251522   566413 
  399000   0.99580672   -2.7802056   -2.7802056    -1.654832  0.065962657   -2.7802056    1.1253736   566406 
  400000   0.99582756   -2.7798082   -2.7798082   -1.6543971  0.068589651   -2.7798082    1.1254111   566399 
  401000   0.99518828   -2.7793828   -2.7793828   -1.6546783  0.065341442   -2.7793828    1.1247045   566391 
  402000   0.99455015   -2.7786335   -2.7786335   -1.6546363  0.063852253   -2.7786335    1.1239972   566384 
  403000   0.99697018    -2.780182    -2.780182   -1.6534338  0.059304831    -2.780182    1.1267481   566376 
  404000   0.99576489    -2.779393    -2.779393   -1.6539931  0.076559054    -2.779393    1.1253999   566369 
  405000   0.99630422   -2.7798225   -2.7798225   -1.6537972  0.059387684   -2.7798225    1.1260253   566361 
  406000   0.99673107   -2.7793136   -2.7793136   -1.6527919  0.063321944   -2.7793136    1.1265217   566354 
  407000   0.99607033   -2.7796974   -2.7796974   -1.6539086  0.069303838   -2.7796974    1.1257888   566347 
  408000   0.99606573   -2.7793988   -2.7793988   -1.6535993  0.064691489   -2.7793988    1.1257995   566339 
  409000   0.99512482   -2.7781906   -2.7781906   -1.6534407  0.065531498   -2.7781906    1.1247499   566332 
  410000   0.99670119   -2.7799909   -2.7799909   -1.6534433  0.065825038   -2.7799909    1.1265476   566324 
  411000   0.99513765   -2.7792406   -2.7792406   -1.6544464  0.056947834   -2.7792406    1.1247942   566317 
  412000   0.99593431   -2.7793465   -2.7793465   -1.6536379   0.05855562   -2.7793465    1.1257086   566310 
  413000    0.9942967   -2.7785846   -2.7785846   -1.6547111  0.062422361   -2.7785846    1.1238735   566302 
  414000   0.99440128   -2.7789271   -2.7789271   -1.6549216  0.064120236   -2.7789271    1.1240056   566295 
  415000   0.99331276    -2.777694    -2.777694    -1.654903  0.058747856    -2.777694    1.1227911   566287 
  416000   0.99485652   -2.7795662   -2.7795662   -1.6550163  0.065524571   -2.7795662      1.12455   566280 
  417000   0.99559266   -2.7800367   -2.7800367   -1.6546407  0.074085656   -2.7800367     1.125396   566273 
  418000   0.99513496    -2.779935    -2.779935   -1.6550405  0.057070995    -2.779935    1.1248945   566265 
  419000   0.99469812   -2.7784252   -2.7784252   -1.6540106  0.073412573   -2.7784252    1.1244146   566258 
  420000   0.99355419    -2.776807    -2.776807   -1.6536697  0.067020966    -2.776807    1.1231373   566250 
  421000   0.99491245   -2.7784791   -2.7784791   -1.6537925  0.068716794   -2.7784791    1.1246867   566243 
  422000   0.99770971   -2.7820695   -2.7820695   -1.6542068  0.073231566   -2.7820695    1.1278627   566236 
  423000   0.99674329   -2.7803367   -2.7803367   -1.6535505    0.0683586   -2.7803367    1.1267862   566228 
  424000   0.99530925    -2.779261    -2.779261   -1.6540821   0.06646116    -2.779261    1.1251789   566221 
  425000   0.99722823   -2.7811961   -2.7811961   -1.6538319  0.076602787   -2.7811961    1.1273642   566213 
  426000   0.99721823    -2.781457    -2.781457   -1.6540901  0.068528835    -2.781457    1.1273669   566206 
  427000     0.996774   -2.7805593   -2.7805593   -1.6536807  0.076981621   -2.7805593    1.1268786   566199 
  428000   0.99583189   -2.7804618   -2.7804618   -1.6546324  0.077454406   -2.7804618    1.1258294   566191 
  429000   0.99660325    -2.781446    -2.781446   -1.6547306  0.071612553    -2.781446    1.1267154   566184 
  430000   0.99516952   -2.7797348   -2.7797348   -1.6546244  0.070623992   -2.7797348    1.1251104   566176 
  431000   0.99674089   -2.7815026   -2.7815026   -1.6546017  0.056306993   -2.7815026    1.1269009   566169 
  432000   0.99510097   -2.7795518   -2.7795518   -1.6544891  0.070421515   -2.7795518    1.1250627   566161 
  433000   0.99548991   -2.7790112   -2.7790112   -1.6534949  0.075351256   -2.7790112    1.1255163   566154 
  434000   0.99440646   -2.7772073   -2.7772073   -1.6529021  0.072508423   -2.7772073    1.1243053   566147 
  435000   0.99435414   -2.7771192   -2.7771192   -1.6528571  0.069735302   -2.7771192     1.124262   566139 
  436000   0.99424017   -2.7779742   -2.7779742   -1.6538272  0.066828719   -2.7779742    1.1241471   566132 
  437000   0.99610499   -2.7798737   -2.7798737   -1.6536023  0.053166726   -2.7798737    1.1262714   566124 
  438000   0.99496275   -2.7776766   -2.7776766   -1.6526828  0.062653303   -2.7776766    1.1249938   566117 
  439000   0.99635804    -2.779578    -2.779578   -1.6529926   0.05534917    -2.779578    1.1265854   566110 
  440000   0.99568136   -2.7792833   -2.7792833   -1.6534471  0.061201236   -2.7792833    1.1258362   566102 
  441000   0.99544926   -2.7789532   -2.7789532   -1.6533655   0.06325045   -2.7789532    1.1255877   566095 
  442000   0.99480639   -2.7780369   -2.7780369   -1.6531602  0.060902997   -2.7780369    1.1248767   566087 
  443000   0.99529437   -2.7778311   -2.7778311   -1.6523887  0.056967699   -2.7778311    1.1254424   566080 
  444000   0.99486471   -2.7776341   -2.7776341   -1.6526637  0.068305803   -2.7776341    1.1249704   566073 
  445000   0.99451359   -2.7774515   -2.7774515   -1.6528622  0.068300424   -2.7774515    1.1245893   566065 
  446000   0.99632075   -2.7788951   -2.7788951   -1.6522483  0.064198814   -2.7788951    1.1266467   566058 
  447000   0.99513882   -2.7779366   -2.7779366   -1.6526105  0.061701129   -2.7779366    1.1253261   566050 
  448000   0.99541957   -2.7781027   -2.7781027   -1.6524452  0.062868136   -2.7781027    1.1256575   566043 
  449000   0.99426833   -2.7767178   -2.7767178   -1.6523483  0.058574876   -2.7767178    1.1243696   566036 
  450000   0.99590836   -2.7774565   -2.7774565   -1.6512164  0.070363771   -2.7774565    1.1262401   566028 
  451000   0.99700133    -2.779529    -2.779529    -1.652039  0.068585362    -2.779529      1.12749   566021 
  452000   0.99598236   -2.7793941   -2.7793941   -1.6530405  0.064129132   -2.7793941    1.1263536   566013 
  453000   0.99394014     -2.77785     -2.77785    -1.653792  0.073292823     -2.77785     1.124058   566006 
  454000   0.99337055   -2.7785789   -2.7785789   -1.6551512  0.057752483   -2.7785789    1.1234277   565999 
  455000   0.99453088   -2.7786591   -2.7786591   -1.6539032   0.05063669   -2.7786591    1.1247559   565991 
  456000   0.99276247   -2.7774164   -2.7774164   -1.6546466  0.062821859   -2.7774164    1.1227698   565984 
  457000    0.9924878    -2.777621    -2.777621    -1.655146   0.06541033    -2.777621     1.122475   565976 
  458000   0.99280797   -2.7783766   -2.7783766   -1.6555256  0.060190752   -2.7783766     1.122851   565969 
  459000   0.99298368   -2.7786557   -2.7786557   -1.6555901  0.059258383   -2.7786557    1.1230656   565961 
  460000   0.99301543    -2.778199    -2.778199   -1.6550836  0.072382468    -2.778199    1.1231154   565954 
  461000   0.99332397   -2.7791783   -2.7791783      -1.6557  0.060916186   -2.7791783    1.1234783   565947 
  462000   0.99401422   -2.7794525   -2.7794525   -1.6551777  0.060858078   -2.7794525    1.1242749   565939 
  463000   0.99531851   -2.7807084   -2.7807084   -1.6549444  0.052378713   -2.7807084     1.125764   565932 
  464000   0.99347413   -2.7792442   -2.7792442   -1.6555504  0.072878352   -2.7792442    1.1236938   565924 
  465000   0.99439573   -2.7809057   -2.7809057   -1.6561557  0.062910285   -2.7809057    1.1247501   565917 
  466000   0.99549293   -2.7808804   -2.7808804   -1.6548753  0.071864938   -2.7808804     1.126005   565910 
  467000    0.9952584   -2.7816755   -2.7816755   -1.6559198   0.06654679   -2.7816755    1.1257557   565902 
  468000   0.99518538   -2.7812716   -2.7812716   -1.6555846  0.061750095   -2.7812716     1.125687   565895 
  469000    0.9966131   -2.7825051   -2.7825051   -1.6551872  0.068491995   -2.7825051    1.1273179   565887 
  470000   0.99288241   -2.7793731   -2.7793731   -1.6562612  0.078567808   -2.7793731    1.1231118   565880 
  471000   0.99562795   -2.7817386   -2.7817386   -1.6555072  0.066372924   -2.7817386    1.1262314   565873 
  472000   0.99597306   -2.7822853   -2.7822853   -1.6556476  0.064615977   -2.7822853    1.1266377   565865 
  473000   0.99463785    -2.780244    -2.780244   -1.6551028  0.062545193    -2.780244    1.1251412   565858 
  474000   0.99512825   -2.7814476   -2.7814476   -1.6557357  0.065459783   -2.7814476    1.1257119   565850 
  475000   0.99517161   -2.7817024   -2.7817024   -1.6559275  0.066192029   -2.7817024    1.1257749   565843 
  476000   0.99428121   -2.7816464   -2.7816464   -1.6568648  0.060333351   -2.7816464    1.1247815   565836 
  477000   0.99254937   -2.7801517   -2.7801517   -1.6573134  0.065544387   -2.7801517    1.1228383   565828 
  478000   0.99212516   -2.7796637   -2.7796637   -1.6572914  0.062309698   -2.7796637    1.1223723   565821 
  479000   0.99423945   -2.7809432   -2.7809432   -1.6561631  0.068213031   -2.7809432      1.12478   565813 
  480000   0.99437929    -2.781617    -2.781617   -1.6566649  0.065628067    -2.781617    1.1249521   565806 
  481000   0.99419268   -2.7816404   -2.7816404   -1.6568855   0.04829817   -2.7816404    1.1247549   565799 
  482000   0.99383808   -2.7807941   -2.7807941   -1.6564244  0.060960312   -2.7807941    1.1243697   565791 
  483000   0.99401522   -2.7809799   -2.7809799   -1.6563959  0.066552445   -2.7809799     1.124584   565784 
  484000   0.99371723   -2.7809968   -2.7809968    -1.656734  0.065864294   -2.7809968    1.1242628   565776 
  485000   0.99362565   -2.7816132   -2.7816132   -1.6574401  0.061109058   -2.7816132     1.124173   565769 
  486000   0.99325445   -2.7805622   -2.7805622   -1.6567932  0.069000747   -2.7805622     1.123769   565761 
  487000   0.99464392    -2.781626    -2.781626   -1.6562711  0.067729631    -2.781626    1.1253549   565754 
  488000   0.99516833    -2.782108    -2.782108   -1.6561458  0.064862671    -2.782108    1.1259622   565747 
  489000   0.99447117   -2.7806107   -2.7806107   -1.6554213  0.072813117   -2.7806107    1.1251893   565739 
  490000   0.99300207   -2.7785505   -2.7785505   -1.6550095  0.068263678   -2.7785505     1.123541   565732 
  491000   0.99534514   -2.7803916   -2.7803916   -1.6541836  0.058313578   -2.7803916     1.126208   565724 
  492000   0.99199812   -2.7778609   -2.7778609   -1.6554261  0.061332853   -2.7778609    1.1224348   565717 
  493000   0.99322755   -2.7790299   -2.7790299     -1.65519  0.057289106   -2.7790299    1.1238398   565710 
  494000   0.99315963   -2.7791952   -2.7791952   -1.6554163  0.071338361   -2.7791952    1.1237789   565702 
  495000   0.99382985   -2.7802687   -2.7802687   -1.6557176  0.067694646   -2.7802687    1.1245512   565695 
  496000   0.99365322    -2.780046    -2.780046   -1.6556788  0.057267442    -2.780046    1.1243672   565687 
  497000   0.99320804   -2.7797359   -2.7797359   -1.6558586  0.056801938   -2.7797359    1.1238774   565680 
  498000   0.99395023   -2.7789594   -2.7789594   -1.6542282  0.063876247   -2.7789594    1.1247311   565673 
  499000   0.99413527   -2.7787869   -2.7787869   -1.6538305  0.060559871   -2.7787869    1.1249564   565665 
  500000   0.99332695   -2.7773611   -2.7773611   -1.6533055  0.071166731   -2.7773611    1.1240556   565658 
  501000   0.99321872   -2.7775728   -2.7775728   -1.6536238  0.075887326   -2.7775728    1.1239491   565650 
  502000   0.99315667   -2.7776901   -2.7776901   -1.6537974   0.06152281   -2.7776901    1.1238928   565643 
  503000   0.99335702    -2.777131    -2.777131   -1.6529976  0.063648246    -2.777131    1.1241334   565636 
  504000   0.99528207   -2.7799253   -2.7799253   -1.6535975  0.052067433   -2.7799253    1.1263278   565628 
  505000    0.9933839   -2.7778135   -2.7778135   -1.6536199  0.065390742   -2.7778135    1.1241936   565621 
  506000   0.99363219   -2.7786948   -2.7786948   -1.6542043   0.06304779   -2.7786948    1.1244905   565613 
  507000   0.99291302   -2.7770652   -2.7770652   -1.6533747  0.063772956   -2.7770652    1.1236905   565606 
  508000   0.99337217    -2.777329    -2.777329   -1.6531049  0.061018391    -2.777329    1.1242241   565599 
  509000   0.99343188   -2.7781807   -2.7781807   -1.6538731  0.060106367   -2.7781807    1.1243075   565591 
  510000   0.99124028   -2.7759541   -2.7759541    -1.654113  0.065554217   -2.7759541    1.1218411   565584 
  511000   0.99100731   -2.7751435   -2.7751435   -1.6535502  0.063048277   -2.7751435    1.1215933   565576 
  512000   0.99276189   -2.7773044   -2.7773044   -1.6537114  0.060374713   -2.7773044     1.123593   565569 
  513000   0.99260701   -2.7771688   -2.7771688   -1.6537352  0.059301341   -2.7771688    1.1234336   565561 
  514000   0.99226342   -2.7760036   -2.7760036   -1.6529449  0.059558831   -2.7760036    1.1230586   565554 
  515000   0.99201806   -2.7758361   -2.7758361   -1.6530413   0.05630444   -2.7758361    1.1227948   565547 
  516000    0.9920449   -2.7766333   -2.7766333   -1.6537923  0.073872466   -2.7766333    1.1228411   565539 
  517000   0.99411255   -2.7785726   -2.7785726   -1.6533774  0.057534352   -2.7785726    1.1251953   565532 
  518000   0.99409399   -2.7782064   -2.7782064   -1.6530162  0.054253802   -2.7782064    1.1251902   565524 
  519000   0.99479545   -2.7804677   -2.7804677   -1.6544696  0.058094466   -2.7804677    1.1259981   565517 
  520000   0.99462814   -2.7792259   -2.7792259   -1.6534032   0.06815633   -2.7792259    1.1258226   565510 
  521000   0.99348621   -2.7783887   -2.7783887   -1.6538428  0.068218646   -2.7783887     1.124546   565502 
  522000   0.99389843   -2.7786129   -2.7786129   -1.6535863  0.072166685   -2.7786129    1.1250265   565495 
  523000   0.99330069   -2.7794476   -2.7794476   -1.6550818  0.063466636   -2.7794476    1.1243658   565487 
  524000   0.99391213   -2.7803218   -2.7803218   -1.6552499  0.069792146   -2.7803218    1.1250719   565480 
  525000    0.9933029    -2.779698    -2.779698   -1.6553019  0.071192626    -2.779698    1.1243962   565473 
  526000   0.99418266    -2.781229    -2.781229    -1.655821  0.071312106    -2.781229     1.125408   565465 
  527000    0.9946228   -2.7806448   -2.7806448   -1.6547247  0.058991787   -2.7806448    1.1259201   565458 
  528000   0.99302287   -2.7798863   -2.7798863   -1.6557614  0.065830019   -2.7798863    1.1241249   565450 
  529000   0.99502181   -2.7817324   -2.7817324   -1.6553307  0.067005657   -2.7817324    1.1264017   565443 
  530000   0.99439186   -2.7811571   -2.7811571   -1.6554546  0.065644155   -2.7811571    1.1257025   565436 
  531000   0.99170611    -2.780153    -2.780153   -1.6574751  0.072603279    -2.780153     1.122678   565428 
  532000   0.99291121   -2.7813861   -2.7813861   -1.6573299  0.055914879   -2.7813861    1.1240561   565421 
  533000   0.99417429   -2.7813221   -2.7813221   -1.6558201  0.074183205   -2.7813221     1.125502   565413 
  534000    0.9929533    -2.780815    -2.780815   -1.6566813  0.062975067    -2.780815    1.1241336   565406 
  535000   0.99267256   -2.7805021   -2.7805021   -1.6566725  0.073595645   -2.7805021    1.1238297   565399 
  536000   0.99362274   -2.7811828   -2.7811828   -1.6562615  0.054602172   -2.7811828    1.1249213   565391 
  537000   0.99347893   -2.7810492   -2.7810492   -1.6562768  0.075207402   -2.7810492    1.1247725   565384 
  538000   0.99349153   -2.7810883   -2.7810883   -1.6562856   0.07178336   -2.7810883    1.1248026   565376 
  539000   0.99390466   -2.7809572   -2.7809572   -1.6556729  0.071497229   -2.7809572    1.1252843   565369 
  540000   0.99258741    -2.779283    -2.779283   -1.6554742  0.065807525    -2.779283    1.1238088   565361 
  541000   0.99340352   -2.7816478   -2.7816478   -1.6569011  0.055240773   -2.7816478    1.1247468   565354 
  542000   0.99183974   -2.7789362   -2.7789362    -1.655946  0.062224093   -2.7789362    1.1229901   565347 
  543000   0.99291519   -2.7801429   -2.7801429   -1.6559192  0.068558114   -2.7801429    1.1242237   565339 
  544000   0.99326588   -2.7801371   -2.7801371   -1.6555024  0.066857535   -2.7801371    1.1246347   565332 
  545000   0.99299403   -2.7791299   -2.7791299   -1.6547871    0.0664071   -2.7791299    1.1243428   565324 
  546000   0.99311366   -2.7787622   -2.7787622     -1.65427  0.058999471   -2.7787622    1.1244922   565317 
  547000   0.99252758   -2.7779989   -2.7779989   -1.6541565  0.073991099   -2.7779989    1.1238425   565310 
  548000    0.9938388   -2.7800109   -2.7800109   -1.6546678  0.069028605   -2.7800109    1.1253431   565302 
  549000   0.99276908    -2.778024    -2.778024   -1.6538782  0.077052299    -2.778024    1.1241458   565295 
  550000   0.99457849   -2.7800293   -2.7800293   -1.6538188  0.067189526   -2.7800293    1.1262105   565287 
  551000   0.99409404   -2.7795225   -2.7795225   -1.6538465  0.061030252   -2.7795225    1.1256759   565280 
  552000    0.9922273   -2.7783001   -2.7783001   -1.6547241  0.061836375   -2.7783001     1.123576   565273 
  553000   0.99164223   -2.7771969   -2.7771969   -1.6542675  0.060368138   -2.7771969    1.1229294   565265 
  554000   0.99191175   -2.7778787   -2.7778787   -1.6546302  0.062615932   -2.7778787    1.1232485   565258 
  555000   0.99174187   -2.7772704   -2.7772704   -1.6541984  0.057247958   -2.7772704     1.123072   565250 
  556000   0.99275068   -2.7773136   -2.7773136   -1.6530853  0.055629065   -2.7773136    1.1242283   565243 
  557000   0.99245114   -2.7782407   -2.7782407   -1.6543376  0.052946644   -2.7782407     1.123903   565236 
  558000   0.99186368   -2.7785917   -2.7785917   -1.6553381  0.066777804   -2.7785917    1.1232537   565228 
  559000   0.99012872   -2.7767053   -2.7767053   -1.6554026  0.056139109   -2.7767053    1.1213028   565221 
  560000   0.98880371   -2.7755262   -2.7755262   -1.6557081  0.063037325   -2.7755262    1.1198181   565213 
  561000   0.98995946   -2.7771146   -2.7771146   -1.6559738  0.067364432   -2.7771146    1.1211408   565206 
  562000   0.99165547   -2.7777822   -2.7777822   -1.6547067   0.05393529   -2.7777822    1.1230755   565199 
  563000   0.99009628   -2.7753669   -2.7753669   -1.6540414  0.068363577   -2.7753669    1.1213255   565191 
  564000   0.99239953   -2.7777051   -2.7777051   -1.6537571   0.06391542   -2.7777051     1.123948   565184 
  565000   0.99087643   -2.7764748   -2.7764748   -1.6542359  0.063182979   -2.7764748    1.1222389   565176 
  566000   0.99063163   -2.7769501   -2.7769501   -1.6549746  0.058294071   -2.7769501    1.1219755   565169 
  567000   0.99252182   -2.7790106   -2.7790106   -1.6548783  0.063952059   -2.7790106    1.1241322   565161 
  568000   0.99082088   -2.7770007   -2.7770007    -1.654781   0.07029941   -2.7770007    1.1222197   565154 
  569000    0.9917643   -2.7775704   -2.7775704   -1.6542683  0.060880409   -2.7775704    1.1233021   565147 
  570000   0.99246784   -2.7775105   -2.7775105   -1.6533956  0.058956993   -2.7775105    1.1241149   565139 
  571000   0.99348201   -2.7789866   -2.7789866   -1.6537092  0.070404254   -2.7789866    1.1252775   565132 
  572000    0.9934517   -2.7792876   -2.7792876   -1.6540285  0.069365049   -2.7792876    1.1252591   565124 
  573000   0.99323811   -2.7792488   -2.7792488   -1.6542177   0.06148546   -2.7792488    1.1250311   565117 
  574000   0.99166314   -2.7772754   -2.7772754   -1.6540143  0.070744526   -2.7772754    1.1232611   565110 
  575000   0.99240327   -2.7786706   -2.7786706   -1.6545553  0.062010097   -2.7786706    1.1241153   565102 
  576000   0.99327773   -2.7789001   -2.7789001   -1.6537803  0.066272907   -2.7789001    1.1251198   565095 
  577000   0.99196256   -2.7773288   -2.7773288   -1.6536829  0.061666711   -2.7773288    1.1236459   565087 
  578000   0.99314707   -2.7780867   -2.7780867   -1.6530851  0.067285267   -2.7780867    1.1250016   565080 
  579000   0.99419468   -2.7791048   -2.7791048   -1.6529026  0.070798056   -2.7791048    1.1262023   565073 
  580000   0.99432955   -2.7804673   -2.7804673   -1.6540963  0.062871953   -2.7804673     1.126371   565065 
  581000     0.995091   -2.7809894   -2.7809894   -1.6537419  0.072776308   -2.7809894    1.1272475   565058 
  582000   0.99472372   -2.7800584   -2.7800584    -1.653211  0.079719164   -2.7800584    1.1268474   565050 
  583000   0.99298553   -2.7788386   -2.7788386   -1.6539462  0.068380686   -2.7788386    1.1248923   565043 
  584000    0.9929688   -2.7775312   -2.7775312   -1.6526439  0.068281812   -2.7775312    1.1248873   565036 
  585000   0.99418106   -2.7791205   -2.7791205    -1.652844  0.059104741   -2.7791205    1.1262765   565028 
  586000   0.99233793   -2.7764962   -2.7764962   -1.6522937  0.062040876   -2.7764962    1.1242024   565021 
  587000   0.99170115   -2.7759286   -2.7759286   -1.6524317  0.066579119   -2.7759286     1.123497   565013 
  588000   0.99105284    -2.776161    -2.776161   -1.6533846  0.052254175    -2.776161    1.1227764   565006 
  589000    0.9904266   -2.7749497   -2.7749497   -1.6528689  0.060906918   -2.7749497    1.1220808   564999 
  590000   0.99068684   -2.7755408   -2.7755408   -1.6531492  0.054519396   -2.7755408    1.1223916   564991 
  591000   0.98992636   -2.7739892   -2.7739892   -1.6524453  0.059974133   -2.7739892    1.1215439   564984 
  592000   0.99143761   -2.7761078   -2.7761078   -1.6528359  0.047861883   -2.7761078    1.1232719   564976 
  593000   0.99049568   -2.7756508   -2.7756508   -1.6534321   0.05876253   -2.7756508    1.1222187   564969 
  594000    0.9907279   -2.7752375   -2.7752375   -1.6527398  0.065728517   -2.7752375    1.1224977   564961 
  595000   0.99056742   -2.7746991   -2.7746991   -1.6523693  0.064279094   -2.7746991    1.1223298   564954 
  596000   0.99020781   -2.7743683   -2.7743683   -1.6524321  0.061367703   -2.7743683    1.1219362   564947 
  597000   0.99204914   -2.7755301   -2.7755301   -1.6514917  0.073953741   -2.7755301    1.1240384   564939 
  598000   0.99090634   -2.7738376   -2.7738376   -1.6510801  0.070018226   -2.7738376    1.1227575   564932 
  599000   0.99102083   -2.7736535   -2.7736535   -1.6507504  0.066052453   -2.7736535    1.1229031   564924 
  600000   0.99223229   -2.7751227   -2.7751227    -1.650833  0.058849915   -2.7751227    1.1242897   564917 
  601000   0.99324797    -2.775637    -2.775637   -1.6501825  0.060203264    -2.775637    1.1254545   564910 
  602000   0.99200267   -2.7750929   -2.7750929   -1.6510335  0.057719792   -2.7750929    1.1240594   564902 
  603000   0.99127769    -2.774186    -2.774186   -1.6509342  0.066101519    -2.774186    1.1232518   564895 
  604000   0.99041351   -2.7741613   -2.7741613   -1.6518728  0.060700353   -2.7741613    1.1222885   564887 
  605000   0.99046292   -2.7747482   -2.7747482   -1.6523898  0.061978479   -2.7747482    1.1223584   564880 
  606000   0.99135128    -2.776057    -2.776057   -1.6526781  0.063510436    -2.776057    1.1233789   564873 
  607000   0.99125112   -2.7755353   -2.7755353   -1.6522539  0.058515802   -2.7755353    1.1232813   564865 
  608000   0.99044872   -2.7754183   -2.7754183   -1.6530323  0.063663108   -2.7754183     1.122386   564858 
  609000   0.99229942   -2.7779568   -2.7779568   -1.6534577  0.057797242   -2.7779568    1.1244991   564850 
  610000   0.99215477   -2.7772248   -2.7772248   -1.6528756  0.072385831   -2.7772248    1.1243491   564843 
  611000   0.99249479   -2.7767755   -2.7767755    -1.652027  0.066653795   -2.7767755    1.1247484   564836 
  612000   0.99400192    -2.778746    -2.778746   -1.6522737   0.06894119    -2.778746    1.1264723   564828 
  613000   0.99170803   -2.7772208   -2.7772208   -1.6533341  0.083111843   -2.7772208    1.1238867   564821 
  614000    0.9930596   -2.7791407   -2.7791407   -1.6537064  0.061850787   -2.7791407    1.1254343   564813 
  615000   0.99207718   -2.7788505   -2.7788505   -1.6545157  0.069682423   -2.7788505    1.1243349   564806 
  616000   0.99207156   -2.7785264   -2.7785264    -1.654184  0.065980166   -2.7785264    1.1243424   564799 
  617000   0.99093536   -2.7785893   -2.7785893   -1.6555187  0.066303064   -2.7785893    1.1230707   564791 
  618000   0.99123199   -2.7781764   -2.7781764   -1.6547557  0.060011474   -2.7781764    1.1234208   564784 
  619000   0.99213409   -2.7802611   -2.7802611    -1.655802  0.051909536   -2.7802611    1.1244591   564776 
  620000   0.99088609    -2.778847    -2.778847   -1.6557884  0.067189122    -2.778847    1.1230586   564769 
  621000   0.98929679   -2.7774301   -2.7774301    -1.656157  0.076041128   -2.7774301    1.1212732   564761 
  622000   0.99031472   -2.7790059   -2.7790059   -1.6565651  0.073180327   -2.7790059    1.1224408   564754 
  623000   0.99194052    -2.781035    -2.781035   -1.6567375  0.061575252    -2.781035    1.1242974   564747 
  624000   0.99174592   -2.7797195   -2.7797195   -1.6556267  0.054863483   -2.7797195    1.1240928   564739 
  625000   0.99252815    -2.780684    -2.780684   -1.6556906  0.069806031    -2.780684    1.1249934   564732 
  626000   0.99202264   -2.7798358   -2.7798358   -1.6553995  0.073601134   -2.7798358    1.1244363   564724 
  627000   0.99151606   -2.7796564   -2.7796564   -1.6557804  0.065795331   -2.7796564     1.123876   564717 
  628000   0.99159999   -2.7802913   -2.7802913   -1.6563061  0.066075922   -2.7802913    1.1239851   564710 
  629000    0.9919277   -2.7802221   -2.7802221   -1.6558496  0.061007584   -2.7802221    1.1243725   564702 
  630000    0.9911754   -2.7804003   -2.7804003   -1.6568667  0.068217488   -2.7804003    1.1235337   564695 
  631000   0.99085099   -2.7795853   -2.7795853   -1.6564034  0.066053428   -2.7795853    1.1231819   564687 
  632000   0.99051111    -2.779556    -2.779556   -1.6567455  0.073983473    -2.779556    1.1228105   564680 
  633000   0.99028211    -2.779945    -2.779945   -1.6573802  0.062638649    -2.779945    1.1225648   564673 
  634000   0.98994698   -2.7787967   -2.7787967   -1.6565958  0.067591008   -2.7787967    1.1222008   564665 
  635000    0.9910329   -2.7795015   -2.7795015   -1.6560557  0.052147359   -2.7795015    1.1234458   564658 
  636000   0.99145122   -2.7797143   -2.7797143   -1.6557784  0.064208592   -2.7797143    1.1239359   564650 
  637000   0.99139628   -2.7784845   -2.7784845    -1.654597  0.059457404   -2.7784845    1.1238876   564643 
  638000   0.98988829   -2.7769707   -2.7769707   -1.6547788   0.07475204   -2.7769707    1.1221919   564636 
  639000   0.99030906   -2.7775815   -2.7775815   -1.6548967  0.066222674   -2.7775815    1.1226849   564628 
  640000   0.98918554   -2.7760104   -2.7760104   -1.6545854   0.05890152   -2.7760104    1.1214251   564621 
  641000   0.99024792   -2.7786556   -2.7786556   -1.6560102  0.057353564   -2.7786556    1.1226454   564613 
  642000   0.98909701   -2.7764435   -2.7764435    -1.655089  0.066074209   -2.7764435    1.1213545   564606 
  643000   0.99102139   -2.7786865   -2.7786865   -1.6551363  0.056416033   -2.7786865    1.1235501   564599 
  644000   0.99039251   -2.7782989   -2.7782989   -1.6554459  0.060720266   -2.7782989     1.122853   564591 
  645000   0.99013086   -2.7780819   -2.7780819   -1.6555116  0.051328842   -2.7780819    1.1225703   564584 
  646000   0.99154745   -2.7777784   -2.7777784   -1.6535861  0.061951796   -2.7777784    1.1241923   564576 
  647000    0.9915548   -2.7776609   -2.7776609   -1.6534463  0.064632299   -2.7776609    1.1242146   564569 
  648000    0.9937874   -2.7803436   -2.7803436   -1.6535817   0.06595434   -2.7803436    1.1267619   564561 
  649000   0.99155266   -2.7793025   -2.7793025   -1.6550605  0.065611518   -2.7793025     1.124242   564554 
  650000    0.9918861    -2.778751    -2.778751   -1.6541169  0.070132612    -2.778751     1.124634   564547 
  651000    0.9911903   -2.7787123   -2.7787123   -1.6548512  0.055181148   -2.7787123     1.123861   564539 
  652000   0.99010598   -2.7776168   -2.7776168   -1.6549713  0.057123334   -2.7776168    1.1226455   564532 
  653000   0.99053525   -2.7773787   -2.7773787   -1.6542306  0.063333527   -2.7773787    1.1231482   564524 
  654000   0.98967372   -2.7772588   -2.7772588   -1.6550736  0.060195664   -2.7772588    1.1221852   564517 
  655000   0.98944969   -2.7767024   -2.7767024   -1.6547573  0.060594116   -2.7767024    1.1219451   564510 
  656000   0.99089253   -2.7780046   -2.7780046   -1.6544075  0.052542448   -2.7780046    1.1235971   564502 
  657000   0.98806758   -2.7767578   -2.7767578   -1.6563501   0.06007879   -2.7767578    1.1204077   564495 
  658000   0.99019618   -2.7788511   -2.7788511   -1.6560138  0.054137965   -2.7788511    1.1228373   564487 
  659000   0.98962599   -2.7779203   -2.7779203   -1.6557156  0.059049544   -2.7779203    1.1222046   564480 
  660000   0.98918588   -2.7779498   -2.7779498   -1.6562303  0.066134587   -2.7779498    1.1217195   564473 
  661000   0.99088241   -2.7793535   -2.7793535   -1.6556943  0.066117774   -2.7793535    1.1236592   564465 
[...]
19832000   0.65410884   -2.4632251   -2.4632251   -1.4721285  0.055189706   -2.4632251   0.99109664   422458 
19833000   0.65132278   -2.4605932   -2.4605932   -1.4736993  0.062751222   -2.4605932   0.98689392   422450 
19834000   0.65095945   -2.4602254   -2.4602254   -1.4738656   0.05257519   -2.4602254   0.98635974   422443 
19835000   0.65093427   -2.4589905   -2.4589905   -1.4726526  0.059968115   -2.4589905   0.98633794   422436 
19836000   0.65159586   -2.4597988   -2.4597988   -1.4724397  0.052405142   -2.4597988   0.98735912   422428 
19837000   0.65284776   -2.4618833   -2.4618833   -1.4726107  0.057155402   -2.4618833   0.98927252   422421 
19838000    0.6532028   -2.4617962   -2.4617962    -1.471967  0.059341864   -2.4617962   0.98982925   422413 
19839000   0.65258038   -2.4599588   -2.4599588   -1.4710563  0.058999689   -2.4599588   0.98890245   422406 
19840000    0.6506723   -2.4596396   -2.4596396   -1.4736123  0.051612634   -2.4596396   0.98602735   422399 
19841000   0.65186554   -2.4613137   -2.4613137   -1.4734594  0.058020586   -2.4613137   0.98785429   422391 
19842000   0.65114227   -2.4591624   -2.4591624   -1.4723878  0.046287636   -2.4591624   0.98677459   422384 
19843000     0.649715   -2.4584001   -2.4584001   -1.4737698  0.054823692   -2.4584001   0.98463027   422376 
19844000   0.65003026   -2.4602234   -2.4602234    -1.475099  0.049885772   -2.4602234   0.98512437   422369 
19845000   0.64966309   -2.4589449   -2.4589449   -1.4743584  0.052527698   -2.4589449   0.98458657   422361 
19846000   0.64939719   -2.4576141   -2.4576141   -1.4734142  0.047374209   -2.4576141    0.9841999   422354 
19847000   0.65132075   -2.4592339   -2.4592339   -1.4721024  0.056400071   -2.4592339   0.98713153   422347 
19848000     0.650585   -2.4590575   -2.4590575   -1.4730224  0.059019724   -2.4590575   0.98603512   422339 
19849000   0.65145106   -2.4595705   -2.4595705   -1.4722064   0.06152494   -2.4595705   0.98736409   422332 
19850000   0.65089637   -2.4586137   -2.4586137   -1.4720716  0.049483961   -2.4586137   0.98654207   422324 
19851000   0.65101476   -2.4581222   -2.4581222   -1.4713843  0.053090856   -2.4581222   0.98673787   422317 
19852000   0.65024689   -2.4557906   -2.4557906   -1.4702002  0.060817336   -2.4557906   0.98559035   422310 
19853000    0.6529539   -2.4590158   -2.4590158   -1.4693036  0.060780069   -2.4590158   0.98971216   422302 
19854000   0.65330712   -2.4612852   -2.4612852   -1.4710212   0.05170179   -2.4612852   0.99026397   422295 
19855000   0.65206037   -2.4594764   -2.4594764   -1.4710835  0.061044856   -2.4594764   0.98839291   422287 
19856000    0.6506102   -2.4594749   -2.4594749   -1.4732638  0.052985495   -2.4594749   0.98621108   422280 
19857000   0.65004409   -2.4581581   -2.4581581   -1.4727888   0.05820572   -2.4581581   0.98536929   422273 
19858000   0.65016808    -2.457417    -2.457417    -1.471841  0.062166605    -2.457417   0.98557592   422265 
19859000   0.65103134   -2.4580939   -2.4580939   -1.4711931  0.062971611   -2.4580939   0.98690086   422258 
19860000   0.65075177   -2.4587257   -2.4587257     -1.47223  0.052332282   -2.4587257   0.98649575   422250 
19861000   0.65099031   -2.4593455   -2.4593455   -1.4724718  0.054078599   -2.4593455   0.98687374   422243 
19862000   0.65251545   -2.4602765   -2.4602765   -1.4710743  0.056508791   -2.4602765   0.98920218   422236 
19863000   0.65197504    -2.460036    -2.460036   -1.4716344  0.057163628    -2.460036   0.98840165   422228 
19864000   0.65095268   -2.4591321   -2.4591321    -1.472264  0.057874174   -2.4591321   0.98686811   422221 
19865000   0.65081271   -2.4589615   -2.4589615   -1.4722869  0.063754283   -2.4589615    0.9866746   422213 
19866000   0.65062581   -2.4592405   -2.4592405   -1.4728329  0.049748738   -2.4592405   0.98640759   422206 
19867000   0.65185195   -2.4603239   -2.4603239    -1.472041   0.04748501   -2.4603239   0.98828292   422199 
19868000   0.65064176   -2.4584001   -2.4584001   -1.4719333  0.049964818   -2.4584001   0.98646683   422191 
19869000   0.65048106   -2.4579455   -2.4579455    -1.471706   0.05870242   -2.4579455   0.98623954   422184 
19870000     0.650735   -2.4584863   -2.4584863    -1.471843  0.048060356   -2.4584863   0.98664325   422176 
19871000   0.65039173   -2.4590159   -2.4590159   -1.4728768  0.054568486   -2.4590159   0.98613913   422169 
19872000   0.65026169   -2.4597767   -2.4597767   -1.4738161  0.058031203   -2.4597767   0.98596065   422161 
19873000   0.65100272   -2.4605503   -2.4605503   -1.4734497  0.052215867   -2.4605503    0.9871006   422154 
19874000   0.65066325   -2.4589995   -2.4589995   -1.4723973  0.054534966   -2.4589995   0.98660223   422147 
19875000    0.6524634   -2.4608071   -2.4608071   -1.4714565  0.059563189   -2.4608071   0.98935055   422139 
19876000   0.65207333   -2.4607579   -2.4607579   -1.4719825  0.054084854   -2.4607579   0.98877547   422132 
19877000   0.65196049   -2.4593614   -2.4593614   -1.4707383  0.056590531   -2.4593614   0.98862311   422124 
19878000   0.65164601   -2.4595105   -2.4595105   -1.4713479  0.047696514   -2.4595105   0.98816262   422117 
19879000   0.65214232   -2.4601586   -2.4601586    -1.471227  0.055477969   -2.4601586   0.98893162   422110 
19880000   0.65305496   -2.4622129   -2.4622129   -1.4718786  0.051539419   -2.4622129   0.99033435   422102 
19881000    0.6505676   -2.4589599   -2.4589599   -1.4723812  0.063901537   -2.4589599   0.98657873   422095 
19882000    0.6515535    -2.460292    -2.460292   -1.4721995  0.053109989    -2.460292   0.98809256   422087 
19883000   0.65139133   -2.4583383   -2.4583383   -1.4704752  0.056507718   -2.4583383   0.98786301   422080 
19884000   0.65142581   -2.4588074   -2.4588074   -1.4708757  0.054159795   -2.4588074   0.98793169   422073 
19885000   0.65196068   -2.4600746   -2.4600746    -1.471313  0.058540249   -2.4600746    0.9887616   422065 
19886000   0.65120737   -2.4579053   -2.4579053   -1.4702698   0.05879785   -2.4579053    0.9876355   422058 
19887000   0.65159723   -2.4578158   -2.4578158   -1.4695703  0.060242803   -2.4578158   0.98824551   422050 
19888000   0.65025094   -2.4560785   -2.4560785   -1.4698585   0.05681498   -2.4560785   0.98622002   422043 
19889000   0.64939633   -2.4554101   -2.4554101   -1.4704699  0.058820925   -2.4554101   0.98494018   422036 
19890000   0.65048533   -2.4556074   -2.4556074   -1.4689968  0.058978495   -2.4556074   0.98661058   422028 
19891000   0.65027532   -2.4553816   -2.4553816   -1.4690732  0.052873847   -2.4553816   0.98630841   422021 
19892000   0.65079714   -2.4557535   -2.4557535   -1.4686349  0.046555219   -2.4557535   0.98711859   422013 
19893000   0.64973879   -2.4547395   -2.4547395   -1.4692099  0.048978387   -2.4547395   0.98552964   422006 
19894000    0.6511397   -2.4562556   -2.4562556   -1.4685846  0.056901839   -2.4562556   0.98767094   421999 
19895000   0.65092078   -2.4565932   -2.4565932   -1.4692357  0.051104541   -2.4565932   0.98735759   421991 
19896000   0.65025981   -2.4556069   -2.4556069   -1.4692355  0.060668949   -2.4556069   0.98637135   421984 
19897000   0.65118413   -2.4569517   -2.4569517   -1.4691596  0.056358023   -2.4569517   0.98779217   421976 
19898000    0.6497452   -2.4551651   -2.4551651   -1.4695393  0.044402856   -2.4551651   0.98562579   421969 
19899000   0.64935144   -2.4554009   -2.4554009   -1.4703537  0.054769513   -2.4554009   0.98504715   421961 
19900000   0.65020294   -2.4559058   -2.4559058   -1.4695506  0.053095481   -2.4559058   0.98635521   421954 
19901000   0.65139346   -2.4566333   -2.4566333   -1.4684556   0.05172355   -2.4566333   0.98817762   421947 
19902000   0.64951419   -2.4541518   -2.4541518   -1.4688064  0.055891878   -2.4541518   0.98534542   421939 
19903000   0.64909203   -2.4553446   -2.4553446   -1.4706233  0.053364364   -2.4553446   0.98472131   421932 
19904000   0.65009114   -2.4570329   -2.4570329   -1.4707772  0.061549363   -2.4570329   0.98625573   421924 
19905000   0.65078142   -2.4579658   -2.4579658   -1.4706464  0.055641045   -2.4579658   0.98731935   421917 
19906000   0.65063808   -2.4583214   -2.4583214   -1.4712032  0.066344233   -2.4583214   0.98711825   421910 
19907000   0.65165219   -2.4582972   -2.4582972   -1.4696217  0.059554359   -2.4582972   0.98867556   421902 
19908000   0.65047989   -2.4569824   -2.4569824   -1.4700691   0.06741585   -2.4569824   0.98691335   421895 
19909000   0.65167298   -2.4591697   -2.4591697   -1.4704274  0.045479883   -2.4591697   0.98874225   421887 
19910000   0.65150277   -2.4604039   -2.4604039   -1.4719035  0.057874405   -2.4604039    0.9885004   421880 
19911000   0.65083693   -2.4588713   -2.4588713   -1.4713647  0.051730475   -2.4588713   0.98750654   421873 
19912000   0.65073082   -2.4585971   -2.4585971   -1.4712329  0.060212933   -2.4585971   0.98736426   421865 
19913000    0.6499964   -2.4588465   -2.4588465   -1.4725802   0.06178707   -2.4588465   0.98626629   421858 
19914000   0.65144994   -2.4613293   -2.4613293   -1.4728388  0.055195077   -2.4613293   0.98849055   421850 
19915000   0.65044664   -2.4593712   -2.4593712   -1.4723867  0.053439675   -2.4593712   0.98698455   421843 
19916000   0.64986722   -2.4588457   -2.4588457    -1.472724  0.058934404   -2.4588457   0.98612169   421836 
19917000   0.64973907   -2.4590268   -2.4590268   -1.4730809  0.053686464   -2.4590268   0.98594593   421828 
19918000   0.64861975   -2.4578136   -2.4578136   -1.4735499  0.073205387   -2.4578136   0.98426376   421821 
19919000   0.64950777   -2.4586143   -2.4586143   -1.4729843  0.066064749   -2.4586143      0.98563   421813 
19920000   0.64949413   -2.4579636   -2.4579636    -1.472338  0.051359987   -2.4579636   0.98562565   421806 
19921000   0.64927191   -2.4587065   -2.4587065   -1.4734017  0.053766724   -2.4587065   0.98530478   421799 
19922000   0.65142817   -2.4601274   -2.4601274   -1.4715317   0.05516003   -2.4601274   0.98859578   421791 
19923000   0.64962381   -2.4568162   -2.4568162   -1.4709423  0.056853665   -2.4568162   0.98587387   421784 
19924000   0.65046791   -2.4576875   -2.4576875   -1.4705139  0.060404682   -2.4576875   0.98717361   421776 
19925000   0.64896539   -2.4573595   -2.4573595   -1.4724498   0.05565648   -2.4573595   0.98490967   421769 
19926000   0.65115294   -2.4579814   -2.4579814    -1.469733  0.058113353   -2.4579814   0.98824837   421761 
19927000   0.65110344   -2.4579781   -2.4579781   -1.4697884  0.062674644   -2.4579781   0.98818966   421754 
19928000   0.65001803   -2.4565646   -2.4565646   -1.4700059  0.054972331   -2.4565646   0.98655868   421747 
19929000   0.65104225   -2.4581633   -2.4581633   -1.4700314  0.045219173   -2.4581633   0.98813193   421739 
19930000   0.65004773   -2.4574802   -2.4574802   -1.4708413  0.048075164   -2.4574802   0.98663885   421732 
19931000   0.65022751   -2.4576181   -2.4576181   -1.4706877  0.059848195   -2.4576181   0.98693045   421724 
19932000   0.65087136   -2.4585094   -2.4585094   -1.4705853  0.061022601   -2.4585094    0.9879241   421717 
19933000   0.65079528   -2.4598644   -2.4598644   -1.4720393  0.056216918   -2.4598644   0.98782501   421710 
19934000   0.64996805   -2.4587503   -2.4587503   -1.4721622  0.068634499   -2.4587503    0.9865881   421702 
19935000   0.64888867   -2.4577979   -2.4577979   -1.4728319  0.044978942   -2.4577979   0.98496605   421695 
19936000    0.6500612   -2.4595184   -2.4595184   -1.4727538  0.050438618   -2.4595184   0.98676459   421687 
19937000   0.64952555   -2.4587101   -2.4587101   -1.4727422  0.050625639   -2.4587101   0.98596787   421680 
19938000   0.65000859   -2.4589393   -2.4589393   -1.4722218   0.05656258   -2.4589393   0.98671749   421673 
19939000   0.65098044    -2.460373    -2.460373   -1.4721615  0.053001979    -2.460373   0.98821151   421665 
19940000   0.64989757   -2.4583902   -2.4583902   -1.4718062  0.062213332   -2.4583902   0.98658405   421658 
19941000   0.64967973   -2.4575797   -2.4575797   -1.4713077  0.059331305   -2.4575797   0.98627207   421650 
19942000   0.64995998   -2.4584818   -2.4584818   -1.4717679  0.057647632   -2.4584818    0.9867139   421643 
19943000   0.65012415   -2.4577264   -2.4577264   -1.4707469  0.049577433   -2.4577264   0.98697952   421636 
19944000   0.65002796   -2.4565597   -2.4565597   -1.4697075  0.053455926   -2.4565597    0.9868522   421628 
19945000   0.64946515   -2.4552825   -2.4552825   -1.4692684   0.05773684   -2.4552825   0.98601413   421621 
19946000   0.65081458   -2.4568957   -2.4568957   -1.4688141  0.053911547   -2.4568957   0.98808158   421613 
19947000   0.64771868   -2.4536192   -2.4536192   -1.4702215   0.05551659   -2.4536192   0.98339765   421606 
19948000   0.64903602   -2.4544066   -2.4544066   -1.4689925  0.057140222   -2.4544066   0.98541406   421599 
19949000   0.64922623   -2.4554657   -2.4554657   -1.4697442  0.047981599   -2.4554657   0.98572155   421591 
19950000   0.64890445   -2.4556565   -2.4556565   -1.4704072  0.046441009   -2.4556565   0.98524934   421584 
19951000   0.64762887   -2.4534836   -2.4534836   -1.4701524  0.057249454   -2.4534836   0.98333126   421576 
19952000   0.64735543   -2.4527169   -2.4527169   -1.4697845  0.051997604   -2.4527169   0.98293241   421569 
19953000   0.64911126   -2.4532747   -2.4532747   -1.4676576  0.056864275   -2.4532747   0.98561713   421561 
19954000   0.64965838   -2.4546447   -2.4546447   -1.4681805  0.063097797   -2.4546447   0.98646425   421554 
19955000   0.64914802   -2.4549731   -2.4549731   -1.4692674  0.049527387   -2.4549731   0.98570568   421547 
19956000   0.64873925   -2.4558429   -2.4558429   -1.4707392  0.045817992   -2.4558429   0.98510368   421539 
19957000   0.64897824   -2.4553472   -2.4553472   -1.4698643  0.039891316   -2.4553472   0.98548294   421532 
19958000   0.64841458   -2.4537992   -2.4537992   -1.4691535  0.049158091   -2.4537992   0.98464569   421524 
19959000   0.64928529   -2.4566928   -2.4566928   -1.4707085  0.054163267   -2.4566928   0.98598428   421517 
19960000   0.64842418   -2.4555112   -2.4555112   -1.4708182  0.059851985   -2.4555112   0.98469298   421510 
19961000   0.65000837   -2.4583513   -2.4583513   -1.4712338  0.050491744   -2.4583513   0.98711745   421502 
19962000   0.64951081   -2.4583595   -2.4583595   -1.4719813  0.059123951   -2.4583595   0.98637824   421495 
19963000   0.64934904   -2.4566195   -2.4566195   -1.4704682  0.061055636   -2.4566195   0.98615127   421487 
19964000   0.65022828   -2.4578911   -2.4578911   -1.4703881  0.053815654   -2.4578911   0.98750296   421480 
19965000   0.64942571   -2.4582091   -2.4582091   -1.4719086  0.054487829   -2.4582091   0.98630048   421473 
19966000   0.64826476   -2.4572933   -2.4572933   -1.4727373  0.052552056   -2.4572933   0.98455599   421465 
19967000   0.64865036   -2.4566676   -2.4566676   -1.4715097  0.044452177   -2.4566676   0.98515799   421458 
19968000   0.64812634   -2.4562218   -2.4562218    -1.471841  0.055811379   -2.4562218    0.9843808   421450 
19969000   0.64900619    -2.460576    -2.460576   -1.4748425  0.052419183    -2.460576    0.9857335   421443 
19970000   0.64755687   -2.4574109   -2.4574109   -1.4738624   0.05037587   -2.4574109   0.98354856   421436 
19971000   0.64669848   -2.4572198   -2.4572198   -1.4749563  0.048975539   -2.4572198   0.98226343   421428 
19972000   0.64777537    -2.456286    -2.456286   -1.4723706  0.065511701    -2.456286   0.98391545   421421 
19973000   0.64777854    -2.456385    -2.456385    -1.472446  0.054964686    -2.456385   0.98393894   421413 
19974000   0.64765942   -2.4567089   -2.4567089   -1.4729345  0.050552155   -2.4567089   0.98377435   421406 
19975000   0.64764498   -2.4560677   -2.4560677    -1.472299    0.0623544   -2.4560677   0.98376875   421399 
19976000   0.64882428   -2.4589409   -2.4589409   -1.4733621  0.053888898   -2.4589409   0.98557882   421391 
19977000   0.64902845   -2.4587677   -2.4587677   -1.4728624  0.052418107   -2.4587677   0.98590533   421384 
19978000   0.64602669   -2.4548913   -2.4548913   -1.4735271  0.056632169   -2.4548913   0.98136415   421376 
19979000   0.64808374   -2.4574152   -2.4574152   -1.4729098  0.051329971   -2.4574152   0.98450532   421369 
19980000   0.64858311   -2.4579281   -2.4579281   -1.4726455  0.057116612   -2.4579281   0.98528262   421361 
19981000   0.64853279   -2.4579636   -2.4579636    -1.472741  0.069183526   -2.4579636   0.98522254   421354 
19982000   0.64926074   -2.4584249   -2.4584249   -1.4720801  0.052675447   -2.4584249    0.9863448   421347 
19983000   0.64839502   -2.4586699   -2.4586699   -1.4736216  0.057173362   -2.4586699   0.98504831   421339 
19984000   0.64738671   -2.4574964   -2.4574964   -1.4739636  0.055491672   -2.4574964   0.98353283   421332 
19985000   0.64736263   -2.4570696   -2.4570696   -1.4735547  0.059854293   -2.4570696   0.98351492   421324 
19986000   0.64951872   -2.4591247   -2.4591247   -1.4723177   0.05197448   -2.4591247   0.98680699   421317 
19987000   0.64790165     -2.45853     -2.45853   -1.4741634   0.05676382     -2.45853   0.98436654   421310 
19988000   0.64771556   -2.4569327   -2.4569327   -1.4728302  0.067817087   -2.4569327    0.9841025   421302 
19989000    0.6499012   -2.4588196   -2.4588196   -1.4713799  0.044614407   -2.4588196   0.98743964   421295 
19990000   0.64765123   -2.4551679   -2.4551679   -1.4711281  0.061298511   -2.4551679    0.9840398   421287 
19991000   0.64972383   -2.4588426   -2.4588426   -1.4716373  0.053018952   -2.4588426   0.98720531   421280 
19992000   0.64907743   -2.4570509   -2.4570509   -1.4708114  0.064283224   -2.4570509   0.98623954   421273 
19993000    0.6492712   -2.4561709   -2.4561709   -1.4696182  0.068011464   -2.4561709   0.98655269   421265 
19994000    0.6488866   -2.4569088   -2.4569088   -1.4709242  0.063680273   -2.4569088   0.98598468   421258 
19995000    0.6492871   -2.4571286   -2.4571286   -1.4705167  0.046149813   -2.4571286   0.98661198   421250 
19996000   0.64722886   -2.4548232   -2.4548232   -1.4713224  0.049799493   -2.4548232   0.98350076   421243 
19997000   0.64816913   -2.4549801   -2.4549801   -1.4700341  0.056398299   -2.4549801   0.98494592   421236 
19998000   0.64821242   -2.4554258   -2.4554258   -1.4703954  0.049816556   -2.4554258   0.98503042   421228 
19999000   0.64846553   -2.4542698   -2.4542698   -1.4688384  0.046705349   -2.4542698   0.98543142   421221 
20000000   0.64815915    -2.453507    -2.453507   -1.4685224  0.049488106    -2.453507   0.98498454   421213 
Loop time of 65622.9 on 288 procs for 20000000 steps with 421213 atoms

Performance: 131661.423 tau/day, 304.772 timesteps/s
95.7% CPU use with 288 MPI tasks x 1 OpenMP threads

MPI task timing breakdown:
Section |  min time  |  avg time  |  max time  |%varavg|  %CPU | %total
-----------------------------------------------------------------------
Pair    | 3884.2     | 10723      | 13411      |2037.5 |  97.0 | 16.34
Bond    | 13.218     | 14.071     | 15.115     |   8.9 | 100.0 |  0.02
Neigh   | 6162.3     | 18097      | 25142      |3112.6 |  99.4 | 27.58
Comm    | 16042      | 24551      | 39689      |2956.8 |  94.6 | 37.41
Output  | 790.45     | 795.56     | 801.2      |  10.5 |  92.0 |  1.21
Modify  | 7324.3     | 10866      | 21818      |3306.1 |  94.5 | 16.56
Other   |            | 576.7      |            |       |       |  0.88

Nlocal:        1462.55 ave        2367 max         528 min
Histogram: 2 3 2 22 107 115 26 5 4 2
Nghost:        6970.18 ave       10144 max        2152 min
Histogram: 12 25 16 8 23 33 29 67 66 9
Neighs:        45530.7 ave       76732 max        5390 min
Histogram: 24 5 2 3 30 75 88 48 12 1

Total # of neighbors = 13112848
Ave neighs/atom = 31.131157
Ave special neighs/atom = 0.0000000
Neighbor list builds = 2074074
Dangerous builds = 1906666

Total wall time: 18:13:47
