LAMMPS (29 Oct 2020)
  using 1 OpenMP thread(s) per MPI task
Created orthogonal box = (0.0000000 0.0000000 0.0000000) to (100.00000 100.00000 200.00000)
  4 by 5 by 12 MPI processor grid
Lattice spacing in x,y,z = 1.0000000 1.0000000 1.0000000
Created 1010000 atoms
  create_atoms CPU = 0.163 seconds
1010000 atoms in group solvent
Balancing ...
Neighbor list info ...
  update every 1 steps, delay 10 steps, check yes
  max neighbors/atom: 2000, page size: 100000
  master list distance cutoff = 2.9
  ghost atom cutoff = 2.9
  binsize = 1.45, bins = 69 69 138
  1 neighbor lists, perpetual/occasional/extra = 1 0 0
  (1) pair lj/cut/opt, perpetual
      attributes: half, newton on
      pair build: half/bin/newton
      stencil: half/bin/3d/newton
      bin: standard
 rebalancing time: 0.861 seconds
  iteration count = 5
  initial/final maximal load/proc = 8925.0000 5775.0000
  initial/final imbalance factor  = 2.1207921 1.3722772
  x cuts: 0.0000000 0.25 0.5 0.75 1.0000000
  y cuts: 0.0000000 0.2 0.4 0.6 0.8 1.0000000
  z cuts: 0.0000000 0.049479167 0.091145833 0.13020833 0.171875 0.22135417 0.2578125 0.30208333 0.34375 0.37239583 0.4296875 0.46354167 1.0000000
dynamic group thermo defined
New timer settings: style=full  mode=nosync  timeout=off
Setting up Verlet run ...
  Unit style    : lj
  Current step  : 0
  Time step     : 0.005
Per MPI rank memory allocation (min/avg/max) = 9.581 | 9.852 | 10.35 Mbytes
Step Temp E_pair E_vdwl TotEng Press PotEng KinEng Atoms 
       0          0.8   -3.3050748   -3.3050748    -2.105076    8.8982699   -3.3050748    1.1999988  1010000 
    1000    1.5962539   -4.6772783   -4.6772783   -2.2828999    3.9598498   -4.6772783    2.3943785  1010000 
    2000    1.5391555   -4.7435025   -4.7435025   -2.4347715    2.0466376   -4.7435025     2.308731  1010000 
    3000    1.4752183   -4.6973971   -4.6973971   -2.4845718   0.51301257   -4.6973971    2.2128253  1010000 
    4000    1.3542686   -4.4912974   -4.4912974   -2.4598965 -0.076631595   -4.4912974    2.0314009  1010000 
    5000    1.3066503   -4.3831215   -4.3831215    -2.423148  -0.03756719   -4.3831215    1.9599735  1010000 
    6000     1.318346   -4.3752817   -4.3752817   -2.3977647  0.096380629   -4.3752817     1.977517  1010000 
    7000    1.3211088   -4.3662409   -4.3662409   -2.3845796   0.15028085   -4.3662409    1.9816613  1010000 
    8000    1.3260147    -4.366195    -4.366195   -2.3771748   0.19439127    -4.366195    1.9890201  1010000 
    9000    1.3333571   -4.3722117   -4.3722117   -2.3721781   0.25537641   -4.3722117    2.0000336  1010000 
   10000    1.3363142   -4.3731721   -4.3731721   -2.3687027   0.28572965   -4.3731721    2.0044693  1010000 
   11000    1.3340874   -4.3683718   -4.3683718   -2.3672426    0.2977982   -4.3683718    2.0011292  1010000 
   12000    1.3224067   -4.3513382   -4.3513382   -2.3677301     1.076942   -4.3513382     1.983608  1010000 
   13000    1.3161351   -4.3408447   -4.3408447    -2.366644      2.32927   -4.3408447    1.9742007  1010000 
   14000    1.3265955    -4.354935    -4.354935   -2.3650438     2.236351    -4.354935    1.9898912  1010000 
   15000    1.3177649   -4.3409089   -4.3409089   -2.3642635    1.3854159   -4.3409089    1.9766453  1010000 
   16000     1.252666   -4.2420985   -4.2420985   -2.3631013   0.80740977   -4.2420985    1.8789971  1010000 
   17000    1.1624734   -4.1074884   -4.1074884     -2.36378   0.35915735   -4.1074884    1.7437084  1010000 
   18000    1.0748525   -3.9773897   -3.9773897   -2.3651125   0.10632549   -3.9773897    1.6122772  1010000 
   19000    1.0224821   -3.8986594   -3.8986594   -2.3649377  0.023082844   -3.8986594    1.5337217  1010000 
   20000    1.0025681   -3.8709479   -3.8709479   -2.3670972 0.0093088053   -3.8709479    1.5038507  1010000 
   21000   0.99710897   -3.8645059   -3.8645059   -2.3688439  0.031536725   -3.8645059     1.495662  1010000 
   22000    1.0005758   -3.8714134   -3.8714134   -2.3705511  0.065339951   -3.8714134    1.5008622  1010000 
   23000    1.0039852   -3.8792734   -3.8792734    -2.373297   0.11372832   -3.8792734    1.5059763  1010000 
   24000    1.0091609    -3.892144    -3.892144   -2.3784041   0.15796806    -3.892144    1.5137398  1010000 
   25000      1.01403    -3.905359    -3.905359   -2.3843155   0.20242708    -3.905359    1.5210435  1010000 
   26000    1.0198999   -3.9228543   -3.9228543   -2.3930061   0.23576696   -3.9228543    1.5298483  1010000 
   27000    1.0164002   -3.9294222   -3.9294222   -2.4048234   0.21549617   -3.9294222    1.5245989  1010000 
   28000    1.0028338   -3.9293826   -3.9293826   -2.4251334   0.16931678   -3.9293826    1.5042492  1010000 
   29000   0.98312801   -3.9290899   -3.9290899   -2.4543994   0.13935656   -3.9290899    1.4746906  1010000 
   30000   0.96525666   -3.9311324   -3.9311324   -2.4832489   0.10038596   -3.9311324    1.4478836  1010000 
   31000   0.95260487   -3.9315148   -3.9315148   -2.5026089  0.062361459   -3.9315148    1.4289059  1010000 
   32000   0.95375544   -3.9429318   -3.9429318      -2.5123  0.063865206   -3.9429318    1.4306318  1010000 
   33000   0.96444765   -3.9662697   -3.9662697   -2.5195997    0.1068114   -3.9662697      1.44667  1010000 
   34000    0.9844409   -4.0025994   -4.0025994   -2.5259395   0.17458744   -4.0025994    1.4766599  1010000 
   35000    1.0070855   -4.0450008   -4.0450008   -2.5343741   0.28180569   -4.0450008    1.5106267  1010000 
   36000     1.026405   -4.0825416   -4.0825416   -2.5429356   0.38905725   -4.0825416     1.539606  1010000 
   37000    1.0433028   -4.1161674   -4.1161674   -2.5512148   0.46739592   -4.1161674    1.5649526  1010000 
   38000    1.0458591   -4.1313136   -4.1313136   -2.5625265    0.4950759   -4.1313136    1.5687872  1010000 
   39000    1.0365719   -4.1375386   -4.1375386   -2.5826823   0.49426743   -4.1375386    1.5548563  1010000 
   40000    1.0257856   -4.1474006   -4.1474006   -2.6087236   0.49725337   -4.1474006    1.5386769  1010000 
   41000    1.0192702   -4.1616945   -4.1616945   -2.6327907   0.50126857   -4.1616945    1.5289038  1010000 
   42000     1.016143    -4.177111    -4.177111   -2.6528979   0.49698902    -4.177111    1.5242131  1010000 
   43000    1.0115871   -4.1833493   -4.1833493   -2.6659701   0.48917126   -4.1833493    1.5173792  1010000 
   44000    1.0038924   -4.1771359   -4.1771359   -2.6712988   0.44999703   -4.1771359    1.5058371  1010000 
   45000   0.98950698   -4.1560063   -4.1560063   -2.6717473   0.37034803   -4.1560063     1.484259  1010000 
   46000   0.96882412   -4.1226832   -4.1226832   -2.6694485   0.27182878   -4.1226832    1.4532347  1010000 
   47000   0.94477481   -4.0857525   -4.0857525   -2.6685917   0.18554192   -4.0857525    1.4171608  1010000 
   48000   0.92191083   -4.0525726   -4.0525726   -2.6697078   0.10426607   -4.0525726    1.3828649  1010000 
   49000   0.90181423   -4.0227068   -4.0227068   -2.6699868  0.046018161   -4.0227068      1.35272  1010000 
   50000   0.88749863   -3.9989044   -3.9989044   -2.6676578 0.00078876658   -3.9989044    1.3312466  1010000 
   51000   0.87849353   -3.9815651   -3.9815651   -2.6638261 -0.025757373   -3.9815651     1.317739  1010000 
   52000   0.87316607   -3.9676234   -3.9676234   -2.6578756 -0.033875914   -3.9676234    1.3097478  1010000 
   53000   0.87268806   -3.9609532   -3.9609532   -2.6519224 -0.028651636   -3.9609532    1.3090308  1010000 
   54000    0.8754897   -3.9595293   -3.9595293    -2.646296 -0.011841066   -3.9595293    1.3132333  1010000 
   55000   0.88092628    -3.962641    -3.962641   -2.6412529 -0.00088290599    -3.962641    1.3213881  1010000 
   56000   0.88389003   -3.9644523   -3.9644523   -2.6386186  0.010733929   -3.9644523    1.3258337  1010000 
   57000   0.88554605   -3.9658348   -3.9658348    -2.637517   0.02337649   -3.9658348    1.3283178  1010000 
   58000    0.8876564   -3.9697502   -3.9697502    -2.638267  0.019895959   -3.9697502    1.3314833  1010000 
   59000   0.88715661   -3.9711266   -3.9711266    -2.640393  0.019702278   -3.9711266    1.3307336  1010000 
   60000   0.88469882    -3.970643    -3.970643   -2.6435961  0.019779425    -3.970643    1.3270469  1010000 
   61000   0.88386942   -3.9726473   -3.9726473   -2.6468445  0.015249663   -3.9726473    1.3258028  1010000 
   62000   0.88279495   -3.9742133   -3.9742133   -2.6500222  0.020096532   -3.9742133    1.3241911  1010000 
   63000   0.88295972   -3.9762277   -3.9762277   -2.6517895  0.020797339   -3.9762277    1.3244383  1010000 
   64000   0.88402613   -3.9793687   -3.9793687   -2.6533308  0.028060912   -3.9793687    1.3260379  1010000 
   65000   0.88673937   -3.9845197   -3.9845197    -2.654412   0.03392654   -3.9845197    1.3301077  1010000 
   66000   0.88803803   -3.9875656   -3.9875656   -2.6555099   0.03848757   -3.9875656    1.3320557  1010000 
   67000   0.88760586   -3.9886575   -3.9886575     -2.65725   0.03894896   -3.9886575    1.3314075  1010000 
   68000   0.88615796   -3.9882273   -3.9882273   -2.6589916  0.033075297   -3.9882273    1.3292356  1010000 
   69000   0.88517643   -3.9887919   -3.9887919   -2.6610286  0.033210751   -3.9887919    1.3277633  1010000 
   70000   0.88263835    -3.986443    -3.986443   -2.6624868  0.028329422    -3.986443    1.3239562  1010000 
   71000   0.88210737   -3.9869135   -3.9869135   -2.6637537  0.028600666   -3.9869135    1.3231597  1010000 
   72000   0.88134702   -3.9875423   -3.9875423   -2.6655231  0.027714414   -3.9875423    1.3220192  1010000 
   73000   0.88284298   -3.9903877   -3.9903877   -2.6661246  0.031657133   -3.9903877    1.3242632  1010000 
   74000   0.88352609   -3.9923943   -3.9923943   -2.6671064  0.038549841   -3.9923943    1.3252878  1010000 
   75000   0.88376033    -3.994732    -3.994732   -2.6690928  0.038001837    -3.994732    1.3256392  1010000 
   76000   0.88543378    -3.997894    -3.997894   -2.6697447  0.040567452    -3.997894    1.3281494  1010000 
   77000   0.88438948    -3.998204    -3.998204   -2.6716211  0.043432133    -3.998204    1.3265829  1010000 
   78000   0.88521454   -4.0006666   -4.0006666   -2.6728461  0.039692911   -4.0006666    1.3278205  1010000 
   79000   0.88480179   -4.0013356   -4.0013356   -2.6741342  0.051173785   -4.0013356    1.3272014  1010000 
   80000   0.88892687   -4.0084856   -4.0084856   -2.6750966   0.06542127   -4.0084856     1.333389  1010000 
   81000   0.89734271   -4.0223846   -4.0223846   -2.6763719   0.10402486   -4.0223846    1.3460127  1010000 
   82000   0.90955709   -4.0417172   -4.0417172   -2.6773829   0.16371523   -4.0417172    1.3643343  1010000 
   83000   0.92191715   -4.0616229   -4.0616229   -2.6787485   0.22760354   -4.0616229    1.3828743  1010000 
   84000   0.93220736   -4.0773804   -4.0773804   -2.6790708   0.27359596   -4.0773804    1.3983097  1010000 
   85000   0.93391472   -4.0808318   -4.0808318   -2.6799611   0.27743475   -4.0808318    1.4008707  1010000 
   86000   0.92396302   -4.0678906   -4.0678906   -2.6819475   0.22708408   -4.0678906    1.3859432  1010000 
   87000   0.91000604   -4.0476118   -4.0476118   -2.6826041   0.16397057   -4.0476118    1.3650077  1010000 
   88000   0.89570108   -4.0275116   -4.0275116   -2.6839613   0.10170649   -4.0275116    1.3435503  1010000 
   89000   0.88305816   -4.0099072   -4.0099072   -2.6853213  0.049379568   -4.0099072    1.3245859  1010000 
   90000    0.8741087   -3.9975205   -3.9975205   -2.6863587  0.019894949   -3.9975205    1.3111617  1010000 
   91000   0.86981601   -3.9920425   -3.9920425   -2.6873198 0.0066687893   -3.9920425    1.3047227  1010000 
   92000   0.86930583   -3.9924621   -3.9924621   -2.6885046 0.0065742546   -3.9924621    1.3039575  1010000 
   93000   0.87185262   -3.9961213   -3.9961213   -2.6883436  0.015709058   -3.9961213    1.3077776  1010000 
   94000   0.87406158   -4.0007666   -4.0007666   -2.6896755  0.029496932   -4.0007666    1.3110911  1010000 
   95000   0.87808203    -4.007449    -4.007449   -2.6903272   0.04461296    -4.007449    1.3171217  1010000 
   96000   0.88086764   -4.0130794   -4.0130794   -2.6917793  0.048327687   -4.0130794    1.3213002  1010000 
   97000   0.88106496   -4.0142475   -4.0142475   -2.6926514  0.057056599   -4.0142475    1.3215961  1010000 
   98000   0.88132437   -4.0158132   -4.0158132   -2.6938279  0.054847866   -4.0158132    1.3219852  1010000 
   99000   0.87864727   -4.0129463   -4.0129463   -2.6949767  0.043639534   -4.0129463    1.3179696  1010000 
  100000   0.87391122   -4.0072711   -4.0072711   -2.6964055  0.036247804   -4.0072711    1.3108655  1010000 
  101000   0.87002507   -4.0027673   -4.0027673    -2.697731  0.025406315   -4.0027673    1.3050363  1010000 
  102000   0.86887546   -4.0030047   -4.0030047   -2.6996928  0.016484608   -4.0030047    1.3033119  1010000 
  103000   0.86741688   -4.0012618   -4.0012618   -2.7001378  0.015050533   -4.0012618     1.301124  1010000 
  104000      0.86867   -4.0039199   -4.0039199   -2.7009162   0.01587081   -4.0039199    1.3030037  1010000 
  105000   0.87250154   -4.0097648   -4.0097648   -2.7010138  0.031432728   -4.0097648     1.308751  1010000 
  106000   0.87428899   -4.0137633   -4.0137633   -2.7023311  0.040766435   -4.0137633    1.3114322  1010000 
  107000   0.87733227   -4.0189345   -4.0189345   -2.7029374  0.047307427   -4.0189345    1.3159971  1010000 
  108000   0.87794412   -4.0217089   -4.0217089   -2.7047941  0.053204057   -4.0217089    1.3169149  1010000 
  109000   0.87752615   -4.0222917   -4.0222917   -2.7060038  0.047802334   -4.0222917    1.3162879  1010000 
  110000    0.8759615   -4.0207118   -4.0207118   -2.7067708  0.041841906   -4.0207118     1.313941  1010000 
  111000   0.87221887   -4.0161348   -4.0161348   -2.7078078   0.03907395   -4.0161348     1.308327  1010000 
  112000   0.87087506   -4.0144747   -4.0144747   -2.7081634  0.026820619   -4.0144747    1.3063113  1010000 
  113000   0.86855663   -4.0126099   -4.0126099   -2.7097762  0.021049703   -4.0126099    1.3028336  1010000 
  114000   0.86811974   -4.0131856   -4.0131856   -2.7110073  0.019516181   -4.0131856    1.3021783  1010000 
  115000   0.86803817   -4.0140695   -4.0140695   -2.7120135  0.021851236   -4.0140695     1.302056  1010000 
  116000    0.8702097   -4.0185909   -4.0185909   -2.7132776  0.028849285   -4.0185909    1.3053133  1010000 
  117000   0.87243845   -4.0228934   -4.0228934    -2.714237   0.03817801   -4.0228934    1.3086564  1010000 
  118000   0.87476818   -4.0278954   -4.0278954   -2.7157445  0.042851307   -4.0278954     1.312151  1010000 
  119000   0.87610217    -4.031173    -4.031173    -2.717021  0.050106729    -4.031173     1.314152  1010000 
  120000   0.87458842   -4.0301095   -4.0301095   -2.7182282  0.047506288   -4.0301095    1.3118813  1010000 
  121000   0.87413741   -4.0304744   -4.0304744   -2.7192696   0.04421907   -4.0304744    1.3112048  1010000 
  122000   0.87137548   -4.0270474   -4.0270474   -2.7199854  0.037948602   -4.0270474    1.3070619  1010000 
  123000   0.86907991   -4.0243957   -4.0243957   -2.7207771  0.027476793   -4.0243957    1.3036186  1010000 
  124000   0.86731415   -4.0224124   -4.0224124   -2.7214424  0.025769325   -4.0224124    1.3009699  1010000 
  125000   0.86768756   -4.0232915   -4.0232915   -2.7217614  0.022315193   -4.0232915    1.3015301  1010000 
  126000   0.86816313   -4.0248178   -4.0248178   -2.7225743  0.027336142   -4.0248178    1.3022434  1010000 
  127000   0.87012499   -4.0284901   -4.0284901   -2.7233039  0.032446908   -4.0284901    1.3051862  1010000 
  128000   0.87140572   -4.0323882   -4.0323882   -2.7252809   0.03584528   -4.0323882    1.3071073  1010000 
  129000   0.87272185   -4.0356665   -4.0356665    -2.726585  0.042181599   -4.0356665    1.3090815  1010000 
  130000   0.87379417   -4.0373384   -4.0373384   -2.7266484  0.042884035   -4.0373384      1.31069  1010000 
  131000   0.87305424   -4.0381479   -4.0381479   -2.7285679  0.042948208   -4.0381479    1.3095801  1010000 
  132000    0.8713335   -4.0367345   -4.0367345   -2.7297356  0.041831556   -4.0367345     1.306999  1010000 
  133000   0.87035443   -4.0360026   -4.0360026   -2.7304722   0.03316988   -4.0360026    1.3055304  1010000 
  134000    0.8696401   -4.0360429   -4.0360429    -2.731584  0.031313406   -4.0360429    1.3044589  1010000 
  135000    0.8682182   -4.0348889   -4.0348889   -2.7325629  0.027321564   -4.0348889     1.302326  1010000 
  136000    0.8679606   -4.0347814   -4.0347814   -2.7328418  0.022284588   -4.0347814    1.3019396  1010000 
  137000   0.86681606   -4.0347952   -4.0347952   -2.7345724  0.028560853   -4.0347952    1.3002228  1010000 
  138000   0.86790858   -4.0376407   -4.0376407   -2.7357791  0.030470667   -4.0376407    1.3018616  1010000 
  139000   0.86998341   -4.0411305   -4.0411305   -2.7361566  0.036309772   -4.0411305    1.3049738  1010000 
  140000   0.87063517   -4.0437188   -4.0437188   -2.7377674  0.039081235   -4.0437188    1.3059515  1010000 
  141000      0.87157   -4.0460271   -4.0460271   -2.7386734  0.036634057   -4.0460271    1.3073537  1010000 
  142000   0.87134206   -4.0459864   -4.0459864   -2.7389746  0.043954516   -4.0459864    1.3070118  1010000 
  143000   0.87012055   -4.0458047   -4.0458047   -2.7406251   0.04007848   -4.0458047    1.3051795  1010000 
  144000   0.86904604    -4.044802    -4.044802   -2.7412343  0.038213515    -4.044802    1.3035678  1010000 
  145000   0.86736765    -4.043847    -4.043847   -2.7427969   0.02990146    -4.043847    1.3010502  1010000 
  146000   0.86787649    -4.044985    -4.044985   -2.7431716  0.020852507    -4.044985    1.3018134  1010000 
  147000   0.86566625   -4.0434244   -4.0434244   -2.7449263  0.025762375   -4.0434244    1.2984981  1010000 
  148000    0.8659695   -4.0452559   -4.0452559   -2.7463029  0.024940602   -4.0452559     1.298953  1010000 
  149000   0.86739865   -4.0483968   -4.0483968   -2.7473001  0.026895914   -4.0483968    1.3010967  1010000 
  150000   0.86824709   -4.0505889   -4.0505889   -2.7482195  0.031400832   -4.0505889    1.3023694  1010000 
  151000   0.86953842   -4.0536403   -4.0536403    -2.749334  0.032317512   -4.0536403    1.3043063  1010000 
  152000   0.86928426   -4.0542803   -4.0542803   -2.7503552  0.038127967   -4.0542803    1.3039251  1010000 
  153000   0.87022508    -4.057101    -4.057101   -2.7517647  0.032433134    -4.057101    1.3053363  1010000 
  154000   0.86867177   -4.0549803   -4.0549803    -2.751974  0.032739769   -4.0549803    1.3030064  1010000 
  155000   0.86752155   -4.0546955   -4.0546955   -2.7534145  0.029987581   -4.0546955     1.301281  1010000 
  156000   0.86554425   -4.0519385   -4.0519385   -2.7536234  0.027889644   -4.0519385    1.2983151  1010000 
  157000   0.86532921   -4.0521109   -4.0521109   -2.7541183  0.024427921   -4.0521109    1.2979925  1010000 
  158000   0.86525189   -4.0534942   -4.0534942   -2.7556176  0.021100753   -4.0534942    1.2978765  1010000 
  159000   0.86591006    -4.054937    -4.054937   -2.7560732  0.024619088    -4.054937    1.2988638  1010000 
  160000   0.86530747   -4.0552503   -4.0552503   -2.7572903   0.02783477   -4.0552503    1.2979599  1010000 
  161000   0.86637668   -4.0575178   -4.0575178   -2.7579541   0.02790502   -4.0575178    1.2995637  1010000 
  162000   0.86662638   -4.0592405   -4.0592405   -2.7593022   0.03026116   -4.0592405    1.2999383  1010000 
  163000   0.86725844   -4.0609836   -4.0609836   -2.7600972  0.033620248   -4.0609836    1.3008864  1010000 
  164000   0.86809001   -4.0628245   -4.0628245   -2.7606908  0.027325196   -4.0628245    1.3021337  1010000 
  165000   0.86660949   -4.0616923   -4.0616923   -2.7617794  0.029254697   -4.0616923    1.2999129  1010000 
  166000   0.86650065   -4.0628082   -4.0628082   -2.7630585  0.026602778   -4.0628082    1.2997497  1010000 
  167000   0.86519817   -4.0620859   -4.0620859   -2.7642899  0.023117598   -4.0620859     1.297796  1010000 
  168000   0.86475795   -4.0617719   -4.0617719   -2.7646363  0.021860065   -4.0617719    1.2971356  1010000 
  169000    0.8632302   -4.0611055   -4.0611055   -2.7662614  0.025807199   -4.0611055     1.294844  1010000 
  170000   0.86404585   -4.0630364   -4.0630364   -2.7669689   0.02261016   -4.0630364    1.2960675  1010000 
  171000   0.86407674   -4.0634844   -4.0634844   -2.7673705  0.024433568   -4.0634844    1.2961138  1010000 
  172000   0.86397497   -4.0635548   -4.0635548   -2.7675937  0.024718771   -4.0635548    1.2959612  1010000 
  173000   0.86393012     -4.06459     -4.06459   -2.7686961  0.025411918     -4.06459    1.2958939  1010000 
  174000     0.864947   -4.0674314   -4.0674314   -2.7700122  0.024040966   -4.0674314    1.2974192  1010000 
  175000   0.86416857   -4.0667314   -4.0667314   -2.7704799  0.025954053   -4.0667314    1.2962516  1010000 
  176000   0.86428853    -4.066592    -4.066592   -2.7701605  0.024791259    -4.066592    1.2964315  1010000 
  177000   0.86487119   -4.0686777   -4.0686777   -2.7713722  0.024589991   -4.0686777    1.2973055  1010000 
  178000   0.86382415   -4.0687254   -4.0687254   -2.7729905  0.023558034   -4.0687254    1.2957349  1010000 
  179000   0.86272062     -4.06801     -4.06801   -2.7739303  0.017518153     -4.06801    1.2940797  1010000 
  180000    0.8623955   -4.0679624   -4.0679624   -2.7743705  0.020304209   -4.0679624     1.293592  1010000 
  181000   0.86323032   -4.0702666   -4.0702666   -2.7754224  0.018031781   -4.0702666    1.2948442  1010000 
  182000   0.86247383   -4.0697643   -4.0697643   -2.7760548  0.019386781   -4.0697643    1.2937095  1010000 
  183000     0.862926   -4.0710628   -4.0710628   -2.7766751  0.019906859   -4.0710628    1.2943877  1010000 
  184000    0.8626907   -4.0723426   -4.0723426   -2.7783078  0.020542495   -4.0723426    1.2940348  1010000 
  185000    0.8625992   -4.0731682   -4.0731682   -2.7792707   0.02292705   -4.0731682    1.2938975  1010000 
  186000    0.8628063   -4.0741349   -4.0741349   -2.7799267  0.023478527   -4.0741349    1.2942082  1010000 
  187000    0.8624085   -4.0747534   -4.0747534   -2.7811419  0.020385679   -4.0747534    1.2936115  1010000 
  188000    0.8621989   -4.0754544   -4.0754544   -2.7821573   0.01816084   -4.0754544    1.2932971  1010000 
  189000   0.86241167   -4.0763732   -4.0763732    -2.782757  0.016935524   -4.0763732    1.2936162  1010000 
  190000   0.86236679   -4.0773854   -4.0773854   -2.7838365  0.018742971   -4.0773854    1.2935489  1010000 
  191000   0.86147408   -4.0770891   -4.0770891   -2.7848792  0.017041148   -4.0770891    1.2922098  1010000 
  192000   0.86197636   -4.0781045   -4.0781045   -2.7851413    0.0164288   -4.0781045    1.2929633  1010000 
  193000   0.86145076   -4.0784076   -4.0784076   -2.7862327  0.016999827   -4.0784076    1.2921749  1010000 
  194000   0.86086088   -4.0785096   -4.0785096   -2.7872196  0.015581504   -4.0785096      1.29129  1010000 
  195000   0.85981194   -4.0774663   -4.0774663   -2.7877497  0.014900503   -4.0774663    1.2897166  1010000 
  196000   0.86069014   -4.0794389   -4.0794389    -2.788405  0.014787797   -4.0794389    1.2910339  1010000 
  197000   0.86018604   -4.0786764   -4.0786764   -2.7883986  0.018011394   -4.0786764    1.2902778  1010000 
  198000    0.8610645   -4.0804364   -4.0804364   -2.7888409  0.018089214   -4.0804364    1.2915955  1010000 
  199000    0.8606526   -4.0809798   -4.0809798   -2.7900022  0.017221072   -4.0809798    1.2909776  1010000 
  200000   0.86057367   -4.0816226   -4.0816226   -2.7907634  0.019770164   -4.0816226    1.2908592  1010000 
  201000   0.86088529   -4.0834853   -4.0834853   -2.7921586  0.018070654   -4.0834853    1.2913267  1010000 
  202000   0.86024957   -4.0836769   -4.0836769   -2.7933038  0.014809445   -4.0836769    1.2903731  1010000 
  203000   0.85969702   -4.0844285   -4.0844285   -2.7948843  0.018218346   -4.0844285    1.2895443  1010000 
  204000   0.85973581   -4.0856614   -4.0856614   -2.7960589  0.019191496   -4.0856614    1.2896024  1010000 
  205000   0.86023836   -4.0863129   -4.0863129   -2.7959566  0.021629823   -4.0863129    1.2903563  1010000 
  206000   0.85958478   -4.0856653   -4.0856653   -2.7962894  0.021176172   -4.0856653    1.2893759  1010000 
  207000   0.85975607    -4.087143    -4.087143   -2.7975102  0.012722388    -4.087143    1.2896328  1010000 
  208000   0.85917665   -4.0871432   -4.0871432   -2.7983795  0.014385646   -4.0871432    1.2887637  1010000 
  209000    0.8581744   -4.0866788   -4.0866788   -2.7994185   0.01240494   -4.0866788    1.2872603  1010000 
  210000   0.85806892   -4.0868349   -4.0868349   -2.7997328  0.012351739   -4.0868349    1.2871021  1010000 
  211000   0.85790726   -4.0869994   -4.0869994   -2.8001398  0.014766743   -4.0869994    1.2868596  1010000 
  212000   0.85840477   -4.0888121   -4.0888121   -2.8012062  0.016769981   -4.0888121    1.2876059  1010000 
  213000   0.85902107   -4.0903012   -4.0903012   -2.8017708  0.016889842   -4.0903012    1.2885303  1010000 
  214000   0.85976068   -4.0923082   -4.0923082   -2.8026685  0.019126614   -4.0923082    1.2896397  1010000 
  215000   0.85934733   -4.0925694   -4.0925694   -2.8035497  0.015804199   -4.0925694    1.2890197  1010000 
  216000   0.85909077   -4.0932399   -4.0932399    -2.804605   0.01947812   -4.0932399    1.2886349  1010000 
  217000   0.85815117   -4.0926502   -4.0926502   -2.8054247  0.018195095   -4.0926502    1.2872255  1010000 
  218000    0.8578542   -4.0931223   -4.0931223   -2.8063423  0.012884312   -4.0931223      1.28678  1010000 
  219000   0.85647436     -4.09221     -4.09221   -2.8074998  0.015999759     -4.09221    1.2847103  1010000 
  220000    0.8571035   -4.0942476   -4.0942476   -2.8085936  0.011204667   -4.0942476     1.285654  1010000 
  221000   0.85699327   -4.0944471   -4.0944471   -2.8089585  0.012215467   -4.0944471    1.2854886  1010000 
  222000   0.85670611    -4.095168    -4.095168   -2.8101101  0.013875372    -4.095168    1.2850579  1010000 
  223000   0.85614149   -4.0953248   -4.0953248   -2.8111139  0.015815622   -4.0953248     1.284211  1010000 
  224000   0.85690043    -4.098445    -4.098445   -2.8130956  0.013516512    -4.098445    1.2853494  1010000 
  225000   0.85718262   -4.1001133   -4.1001133   -2.8143407  0.012515504   -4.1001133    1.2857727  1010000 
  226000   0.85786197   -4.1009555   -4.1009555   -2.8141638  0.013562877   -4.1009555    1.2867917  1010000 
  227000   0.85840378   -4.1024124   -4.1024124    -2.814808   0.01567461   -4.1024124    1.2876044  1010000 
  228000   0.85805903   -4.1033043   -4.1033043    -2.816217  0.016410346   -4.1033043    1.2870873  1010000 
  229000   0.85808879   -4.1042135   -4.1042135   -2.8170816  0.018582669   -4.1042135    1.2871319  1010000 
  230000    0.8569832    -4.103343    -4.103343   -2.8178694  0.020826408    -4.103343    1.2854735  1010000 
  231000   0.85762049   -4.1053925   -4.1053925    -2.818963  0.015722679   -4.1053925    1.2864295  1010000 
  232000   0.85663725   -4.1038803   -4.1038803   -2.8189257  0.019774066   -4.1038803    1.2849546  1010000 
  233000   0.85676623   -4.1043521   -4.1043521    -2.819204  0.014857951   -4.1043521    1.2851481  1010000 
  234000   0.85518605   -4.1031226   -4.1031226   -2.8203448  0.015417293   -4.1031226    1.2827778  1010000 
  235000   0.85618273    -4.105173    -4.105173   -2.8209002   0.01544427    -4.105173    1.2842728  1010000 
  236000   0.85579339    -4.105108    -4.105108   -2.8214192  0.019287587    -4.105108    1.2836888  1010000 
  237000   0.85562743     -4.10538     -4.10538   -2.8219401  0.013962988     -4.10538    1.2834399  1010000 
  238000   0.85650628   -4.1078315   -4.1078315   -2.8230733   0.01004472   -4.1078315    1.2847582  1010000 
  239000   0.85579706   -4.1076722   -4.1076722   -2.8239779  0.017408032   -4.1076722    1.2836943  1010000 
  240000   0.85592045   -4.1087231   -4.1087231   -2.8248437  0.015276566   -4.1087231    1.2838794  1010000 
  241000   0.85606972   -4.1094985   -4.1094985   -2.8253952   0.01740518   -4.1094985    1.2841033  1010000 
  242000   0.85623586   -4.1104986   -4.1104986   -2.8261461  0.016906929   -4.1104986    1.2843525  1010000 
  243000   0.85645244   -4.1113852   -4.1113852   -2.8267078  0.019931948   -4.1113852    1.2846774  1010000 
  244000   0.85504361   -4.1106918   -4.1106918   -2.8281277  0.022245043   -4.1106918    1.2825641  1010000 
  245000   0.85681965   -4.1142109   -4.1142109   -2.8289827  0.018126601   -4.1142109    1.2852282  1010000 
  246000   0.85602927   -4.1141897   -4.1141897    -2.830147   0.01819439   -4.1141897    1.2840426  1010000 
  247000   0.85646724   -4.1155949   -4.1155949   -2.8308953  0.015837008   -4.1155949    1.2846996  1010000 
  248000   0.85537612   -4.1145903   -4.1145903   -2.8315274  0.018862821   -4.1145903    1.2830629  1010000 
  249000   0.85492908    -4.115216    -4.115216   -2.8328237  0.020827843    -4.115216    1.2823923  1010000 
  250000   0.85454698   -4.1156352   -4.1156352    -2.833816  0.017286987   -4.1156352    1.2818192  1010000 
  251000   0.85439162   -4.1164406   -4.1164406   -2.8348544  0.016244499   -4.1164406    1.2815862  1010000 
  252000   0.85445027   -4.1173258   -4.1173258   -2.8356516  0.010994119   -4.1173258    1.2816741  1010000 
  253000   0.85380159   -4.1182644   -4.1182644   -2.8375633  0.017677293   -4.1182644    1.2807011  1010000 
  254000   0.85422214   -4.1199177   -4.1199177   -2.8385858   0.01569798   -4.1199177    1.2813319  1010000 
  255000   0.85448053   -4.1204301   -4.1204301   -2.8387106  0.015812063   -4.1204301    1.2817195  1010000 
  256000   0.85485752   -4.1206089   -4.1206089   -2.8383239  0.019793034   -4.1206089     1.282285  1010000 
  257000   0.85547706   -4.1225082   -4.1225082   -2.8392939  0.019493056   -4.1225082    1.2832143  1010000 
  258000   0.85530335   -4.1230888   -4.1230888   -2.8401351  0.024107966   -4.1230888    1.2829537  1010000 
  259000   0.85541074   -4.1239562   -4.1239562   -2.8408414  0.021834616   -4.1239562    1.2831148  1010000 
  260000    0.8541338   -4.1225338   -4.1225338   -2.8413344  0.023692834   -4.1225338    1.2811994  1010000 
  261000   0.85447374   -4.1240624   -4.1240624   -2.8423531  0.019833266   -4.1240624    1.2817093  1010000 
  262000   0.85501349   -4.1254026   -4.1254026   -2.8428837  0.018776154   -4.1254026     1.282519  1010000 
  263000   0.85366564   -4.1247152   -4.1247152   -2.8442181  0.016463867   -4.1247152    1.2804972  1010000 
  264000    0.8535026   -4.1262688   -4.1262688   -2.8460162  0.014070346   -4.1262688    1.2802526  1010000 
  265000   0.85456811   -4.1279461   -4.1279461   -2.8460953  0.019952997   -4.1279461    1.2818509  1010000 
  266000   0.85411747   -4.1268826   -4.1268826   -2.8457076  0.022053085   -4.1268826    1.2811749  1010000 
  267000   0.85348475   -4.1278321   -4.1278321   -2.8476063  0.020409118   -4.1278321    1.2802259  1010000 
  268000   0.85447926   -4.1302052   -4.1302052   -2.8484876   0.01585677   -4.1302052    1.2817176  1010000 
  269000   0.85402069   -4.1300949   -4.1300949   -2.8490651  0.015030094   -4.1300949    1.2810298  1010000 
  270000   0.85389202    -4.130856    -4.130856   -2.8500193  0.018950362    -4.130856    1.2808368  1010000 
  271000    0.8546155   -4.1328451   -4.1328451   -2.8509231  0.018001336   -4.1328451     1.281922  1010000 
  272000   0.85352699   -4.1317894   -4.1317894   -2.8515002  0.020411394   -4.1317894    1.2802892  1010000 
  273000   0.85364579   -4.1335729   -4.1335729   -2.8531055  0.021115428   -4.1335729    1.2804674  1010000 
  274000    0.8541796   -4.1355719   -4.1355719   -2.8543038  0.016567994   -4.1355719    1.2812681  1010000 
  275000   0.85350816   -4.1343215   -4.1343215   -2.8540605  0.022923958   -4.1343215     1.280261  1010000 
  276000   0.85470979   -4.1377013   -4.1377013   -2.8556379  0.020738304   -4.1377013    1.2820634  1010000 
  277000   0.85397909   -4.1372199   -4.1372199   -2.8562525   0.02423802   -4.1372199    1.2809674  1010000 
  278000   0.85539015   -4.1395072   -4.1395072   -2.8564232  0.024720658   -4.1395072     1.283084  1010000 
  279000   0.85534361   -4.1403054   -4.1403054   -2.8572913  0.023787426   -4.1403054    1.2830141  1010000 
  280000   0.85608696   -4.1422298   -4.1422298   -2.8581007  0.025440311   -4.1422298    1.2841292  1010000 
  281000   0.85572396   -4.1426196   -4.1426196    -2.859035  0.025171817   -4.1426196    1.2835847  1010000 
  282000   0.85516189   -4.1424583   -4.1424583   -2.8597167  0.026907651   -4.1424583    1.2827416  1010000 
  283000   0.85513607   -4.1435225   -4.1435225   -2.8608197   0.02509326   -4.1435225    1.2827028  1010000 
  284000   0.85408747   -4.1434593   -4.1434593   -2.8623294  0.025586214   -4.1434593    1.2811299  1010000 
  285000   0.85432091    -4.144939    -4.144939   -2.8634589  0.025275231    -4.144939    1.2814801  1010000 
  286000    0.8534831     -4.14374     -4.14374   -2.8635166  0.028106191     -4.14374    1.2802234  1010000 
  287000   0.85313428   -4.1439502   -4.1439502     -2.86425  0.024788951   -4.1439502    1.2797002  1010000 
  288000   0.85427634   -4.1462471   -4.1462471   -2.8648339  0.022367977   -4.1462471    1.2814132  1010000 
  289000   0.85294329   -4.1451365   -4.1451365   -2.8657228  0.024420104   -4.1451365    1.2794137  1010000 
  290000   0.85275572   -4.1452994   -4.1452994   -2.8661671   0.02550552   -4.1452994    1.2791323  1010000 
  291000    0.8531484   -4.1462514   -4.1462514   -2.8665301  0.026849312   -4.1462514    1.2797213  1010000 
  292000   0.85323379   -4.1470623   -4.1470623   -2.8672129  0.025544342   -4.1470623    1.2798494  1010000 
  293000   0.85343971   -4.1478871   -4.1478871   -2.8677288  0.020199797   -4.1478871    1.2801583  1010000 
  294000   0.85291417    -4.147209    -4.147209    -2.867839  0.023656651    -4.147209      1.27937  1010000 
  295000   0.85281517   -4.1485433   -4.1485433   -2.8693218   0.01871408   -4.1485433    1.2792215  1010000 
  296000   0.85209355   -4.1484253   -4.1484253   -2.8702862  0.017499496   -4.1484253    1.2781391  1010000 
  297000   0.85253588   -4.1489457   -4.1489457   -2.8701431   0.02197581   -4.1489457    1.2788025  1010000 
  298000   0.85236895     -4.14924     -4.14924   -2.8706878  0.021045563     -4.14924    1.2785522  1010000 
  299000   0.85253968   -4.1505754   -4.1505754   -2.8717672  0.021448362   -4.1505754    1.2788083  1010000 
  300000   0.85156493   -4.1495977   -4.1495977   -2.8722515  0.021073663   -4.1495977    1.2773461  1010000 
  301000   0.85153007   -4.1501152   -4.1501152   -2.8728213  0.022277126   -4.1501152    1.2772938  1010000 
  302000   0.85150825    -4.150712    -4.150712   -2.8734509  0.021775728    -4.150712    1.2772611  1010000 
  303000   0.85130123   -4.1508593   -4.1508593   -2.8739088  0.021355384   -4.1508593    1.2769506  1010000 
  304000   0.85092497   -4.1508535   -4.1508535   -2.8744673  0.020997986   -4.1508535    1.2763862  1010000 
  305000   0.85066234   -4.1513082   -4.1513082    -2.875316  0.016981875   -4.1513082    1.2759923  1010000 
  306000   0.85075358   -4.1515034   -4.1515034   -2.8753743  0.017243841   -4.1515034    1.2761291  1010000 
  307000   0.84950339   -4.1507941   -4.1507941   -2.8765403  0.020309981   -4.1507941    1.2742538  1010000 
  308000   0.85023695   -4.1517405   -4.1517405   -2.8763863  0.022039477   -4.1517405    1.2753542  1010000 
  309000   0.85063775   -4.1529779   -4.1529779   -2.8770226  0.017291879   -4.1529779    1.2759554  1010000 
  310000   0.84946786   -4.1513896   -4.1513896   -2.8771891  0.018999576   -4.1513896    1.2742005  1010000 
  311000   0.85068656   -4.1529661   -4.1529661   -2.8769375  0.020337251   -4.1529661    1.2760286  1010000 
  312000   0.85041312   -4.1526577   -4.1526577   -2.8770392  0.019523783   -4.1526577    1.2756184  1010000 
  313000   0.84991479   -4.1525382   -4.1525382   -2.8776673  0.018012832   -4.1525382    1.2748709  1010000 
  314000   0.84993353   -4.1538148   -4.1538148   -2.8789158  0.017064896   -4.1538148     1.274899  1010000 
  315000   0.84978119   -4.1545547   -4.1545547   -2.8798842  0.017208598   -4.1545547    1.2746705  1010000 
  316000   0.84943182   -4.1547753   -4.1547753   -2.8806289   0.01577651   -4.1547753    1.2741465  1010000 
  317000    0.8489182   -4.1548446   -4.1548446   -2.8814685  0.018079978   -4.1548446     1.273376  1010000 
  318000     0.848209   -4.1547433   -4.1547433    -2.882431  0.018109183   -4.1547433    1.2723122  1010000 
  319000   0.84849666   -4.1557098   -4.1557098    -2.882966  0.017350103   -4.1557098    1.2727437  1010000 
  320000   0.84900345   -4.1567652   -4.1567652   -2.8832612  0.017447087   -4.1567652    1.2735039  1010000 
  321000   0.84866824    -4.156498    -4.156498   -2.8834969  0.017648864    -4.156498    1.2730011  1010000 
  322000   0.84956763   -4.1582941   -4.1582941   -2.8839439  0.015470401   -4.1582941    1.2743502  1010000 
  323000   0.84885711   -4.1584013   -4.1584013   -2.8851169  0.022315874   -4.1584013    1.2732844  1010000 
  324000   0.84920573   -4.1594369   -4.1594369   -2.8856296   0.02329331   -4.1594369    1.2738073  1010000 
  325000   0.84925038   -4.1600158   -4.1600158   -2.8861415  0.022939402   -4.1600158    1.2738743  1010000 
  326000   0.84892417   -4.1612672   -4.1612672   -2.8878822  0.020972999   -4.1612672     1.273385  1010000 
  327000   0.84863587   -4.1618756   -4.1618756   -2.8889231  0.020727652   -4.1618756    1.2729525  1010000 
  328000   0.84785375   -4.1613489   -4.1613489   -2.8895696  0.023566584   -4.1613489    1.2717794  1010000 
  329000    0.8485792   -4.1628851   -4.1628851   -2.8900176  0.022632561   -4.1628851    1.2728675  1010000 
  330000   0.84800828   -4.1632602   -4.1632602   -2.8912491  0.020640067   -4.1632602    1.2720112  1010000 
  331000   0.84717556   -4.1628207   -4.1628207   -2.8920586  0.022623622   -4.1628207    1.2707621  1010000 
  332000   0.84824003   -4.1644698   -4.1644698    -2.892111  0.020919138   -4.1644698    1.2723588  1010000 
  333000   0.84901672   -4.1661403   -4.1661403   -2.8926165  0.020966545   -4.1661403    1.2735238  1010000 
  334000   0.84875503   -4.1662154   -4.1662154   -2.8930842  0.024486394   -4.1662154    1.2731313  1010000 
  335000   0.84915788   -4.1667696   -4.1667696    -2.893034  0.023897766   -4.1667696    1.2737356  1010000 
  336000   0.84901897   -4.1677015   -4.1677015   -2.8941743  0.024119135   -4.1677015    1.2735272  1010000 
  337000   0.84789137   -4.1664464   -4.1664464   -2.8946106  0.023176248   -4.1664464    1.2718358  1010000 
  338000    0.8488269   -4.1678548   -4.1678548   -2.8946157  0.023437076   -4.1678548    1.2732391  1010000 
  339000   0.84868602   -4.1689134   -4.1689134   -2.8958856  0.018128951   -4.1689134    1.2730278  1010000 
  340000   0.84741642   -4.1680408   -4.1680408   -2.8969174  0.020437951   -4.1680408    1.2711234  1010000 
  341000   0.84635988   -4.1674564   -4.1674564   -2.8979178  0.023539663   -4.1674564    1.2695386  1010000 
  342000   0.84734295   -4.1685446   -4.1685446   -2.8975314  0.019289999   -4.1685446    1.2710132  1010000 
  343000   0.84670529   -4.1678998   -4.1678998   -2.8978431  0.016454783   -4.1678998    1.2700567  1010000 
  344000   0.84618608     -4.16762     -4.16762   -2.8983422  0.020880819     -4.16762    1.2692779  1010000 
  345000   0.84671053   -4.1685263   -4.1685263   -2.8984617  0.021299768   -4.1685263    1.2700645  1010000 
  346000   0.84699465   -4.1698617   -4.1698617    -2.899371  0.016591306   -4.1698617    1.2704907  1010000 
  347000   0.84643342   -4.1695735   -4.1695735   -2.8999247  0.021717511   -4.1695735    1.2696489  1010000 
  348000   0.84672083    -4.170352    -4.170352    -2.900272  0.017039053    -4.170352      1.27008  1010000 
  349000   0.84585323   -4.1694167   -4.1694167   -2.9006382  0.020572436   -4.1694167    1.2687786  1010000 
  350000   0.84537482   -4.1691863   -4.1691863   -2.9011253  0.022172689   -4.1691863     1.268061  1010000 
  351000   0.84508611   -4.1693616   -4.1693616   -2.9017336  0.017184822   -4.1693616    1.2676279  1010000 
  352000     0.845717   -4.1715888   -4.1715888   -2.9030145  0.016117288   -4.1715888    1.2685742  1010000 
  353000   0.84469641    -4.170078    -4.170078   -2.9030346   0.01792759    -4.170078    1.2670434  1010000 
  354000   0.84571579   -4.1721563   -4.1721563   -2.9035839  0.018025062   -4.1721563    1.2685724  1010000 
  355000   0.84560402   -4.1725273   -4.1725273   -2.9041225  0.020274221   -4.1725273    1.2684048  1010000 
  356000    0.8457545   -4.1734903   -4.1734903   -2.9048598  0.017288072   -4.1734903    1.2686305  1010000 
  357000   0.84496248   -4.1728889   -4.1728889   -2.9054464   0.02236364   -4.1728889    1.2674425  1010000 
  358000   0.84623761   -4.1752694   -4.1752694   -2.9059142  0.018912264   -4.1752694    1.2693552  1010000 
  359000   0.84551949   -4.1747444   -4.1747444   -2.9064665  0.021178388   -4.1747444     1.268278  1010000 
  360000   0.84612222    -4.176362    -4.176362   -2.9071799  0.016418381    -4.176362    1.2691821  1010000 
  361000   0.84533277   -4.1757304   -4.1757304   -2.9077325  0.024045007   -4.1757304    1.2679979  1010000 
  362000   0.84526105   -4.1762292   -4.1762292   -2.9083388  0.019522136   -4.1762292    1.2678903  1010000 
  363000   0.84532306   -4.1773187   -4.1773187   -2.9093354  0.021649271   -4.1773187    1.2679833  1010000 
  364000   0.84564363   -4.1788069   -4.1788069   -2.9103427  0.019759272   -4.1788069    1.2684642  1010000 
  365000   0.84499084   -4.1783427   -4.1783427   -2.9108577  0.023915582   -4.1783427     1.267485  1010000 
  366000   0.84471278    -4.178467    -4.178467    -2.911399  0.023809178    -4.178467    1.2670679  1010000 
  367000   0.84455711   -4.1785431   -4.1785431   -2.9117087  0.025447106   -4.1785431    1.2668344  1010000 
  368000   0.84547732   -4.1803745   -4.1803745   -2.9121597  0.019464877   -4.1803745    1.2682147  1010000 
  369000   0.84478348   -4.1805146   -4.1805146   -2.9133406  0.022979226   -4.1805146     1.267174  1010000 
  370000   0.84491553   -4.1810754   -4.1810754   -2.9137034  0.019130844   -4.1810754     1.267372  1010000 
  371000   0.84482291   -4.1811956   -4.1811956   -2.9139625  0.026605863   -4.1811956    1.2672331  1010000 
  372000   0.84323145   -4.1799169   -4.1799169    -2.915071  0.027268753   -4.1799169    1.2648459  1010000 
  373000   0.84344538   -4.1810545   -4.1810545   -2.9158877  0.021763947   -4.1810545    1.2651668  1010000 
  374000   0.84296392    -4.181048    -4.181048   -2.9166034  0.017988459    -4.181048    1.2644446  1010000 
  375000   0.84404998   -4.1832204   -4.1832204   -2.9171467  0.021545678   -4.1832204    1.2660737  1010000 
  376000   0.84433501   -4.1835537   -4.1835537   -2.9170524  0.024598188   -4.1835537    1.2665013  1010000 
  377000   0.84414555   -4.1841195   -4.1841195   -2.9179024  0.021110343   -4.1841195    1.2662171  1010000 
  378000   0.84340407   -4.1824038   -4.1824038    -2.917299   0.02328498   -4.1824038    1.2651048  1010000 
  379000   0.84389775   -4.1837309   -4.1837309   -2.9178856  0.020034183   -4.1837309    1.2658454  1010000 
  380000   0.84298167   -4.1832421   -4.1832421   -2.9187708  0.023188217   -4.1832421    1.2644712  1010000 
  381000   0.84290585   -4.1832745   -4.1832745    -2.918917  0.022508919   -4.1832745    1.2643575  1010000 
  382000   0.84388195   -4.1853285   -4.1853285   -2.9195069  0.021898974   -4.1853285    1.2658217  1010000 
  383000   0.84293581   -4.1847659   -4.1847659   -2.9203634  0.024111905   -4.1847659    1.2644025  1010000 
  384000   0.84316855    -4.185218    -4.185218   -2.9204665  0.017791555    -4.185218    1.2647516  1010000 
  385000   0.84272747   -4.1854879   -4.1854879   -2.9213979  0.019971086   -4.1854879    1.2640899  1010000 
  386000   0.84288979   -4.1857632   -4.1857632   -2.9214298   0.02056985   -4.1857632    1.2643334  1010000 
  387000   0.84259589   -4.1861321   -4.1861321   -2.9222396  0.020603572   -4.1861321    1.2638926  1010000 
  388000   0.84283573   -4.1866126   -4.1866126   -2.9223603  0.020584695   -4.1866126    1.2642523  1010000 
  389000   0.84278999   -4.1871227   -4.1871227   -2.9229389   0.02259998   -4.1871227    1.2641837  1010000 
  390000   0.84220002   -4.1881083   -4.1881083   -2.9248095  0.017588313   -4.1881083    1.2632988  1010000 
  391000   0.84124949   -4.1871382   -4.1871382   -2.9252652  0.022934432   -4.1871382     1.261873  1010000 
  392000   0.84350138   -4.1894924   -4.1894924   -2.9242416   0.02029947   -4.1894924    1.2652508  1010000 
  393000   0.84228847   -4.1891724   -4.1891724    -2.925741  0.023430127   -4.1891724    1.2634314  1010000 
  394000   0.84263654   -4.1901263   -4.1901263   -2.9261728  0.020124232   -4.1901263    1.2639536  1010000 
  395000   0.84187217   -4.1895897   -4.1895897   -2.9267827  0.024613685   -4.1895897     1.262807  1010000 
  396000   0.84130113   -4.1894047   -4.1894047   -2.9274543  0.023879292   -4.1894047    1.2619504  1010000 
  397000   0.84159119   -4.1904239   -4.1904239   -2.9280384  0.022728418   -4.1904239    1.2623855  1010000 
  398000    0.8422869   -4.1923935   -4.1923935   -2.9289644  0.019115316   -4.1923935    1.2634291  1010000 
  399000    0.8420333   -4.1920298   -4.1920298   -2.9289811  0.024451229   -4.1920298    1.2630487  1010000 
  400000   0.84226926   -4.1928269   -4.1928269   -2.9294243  0.018110468   -4.1928269    1.2634026  1010000 
  401000   0.84076103   -4.1914424   -4.1914424   -2.9303021  0.021397342   -4.1914424    1.2611403  1010000 
  402000   0.84243552   -4.1948698   -4.1948698   -2.9312177  0.018238372   -4.1948698     1.263652  1010000 
  403000   0.84121996   -4.1933365   -4.1933365   -2.9315078  0.024071917   -4.1933365    1.2618287  1010000 
  404000   0.84119571    -4.193704    -4.193704   -2.9319117  0.021553275    -4.193704    1.2617923  1010000 
  405000    0.8420576   -4.1956442   -4.1956442   -2.9325591  0.023375217   -4.1956442    1.2630852  1010000 
  406000   0.84152534   -4.1957701   -4.1957701   -2.9334833  0.020806596   -4.1957701    1.2622868  1010000 
  407000   0.84084661   -4.1945159   -4.1945159   -2.9332473  0.025474936   -4.1945159    1.2612687  1010000 
  408000   0.84102112   -4.1950937   -4.1950937   -2.9335632  0.022048342   -4.1950937    1.2615304  1010000 
  409000   0.84092046   -4.1952083   -4.1952083   -2.9338289  0.023376017   -4.1952083    1.2613794  1010000 
  410000   0.84074273   -4.1951829   -4.1951829     -2.93407  0.024276969   -4.1951829    1.2611128  1010000 
  411000   0.84069538    -4.195264    -4.195264   -2.9342222  0.022651823    -4.195264    1.2610418  1010000 
  412000   0.84114172   -4.1980252   -4.1980252   -2.9363139  0.020812841   -4.1980252    1.2617113  1010000 
  413000   0.83980388   -4.1964866   -4.1964866   -2.9367821   0.02381145   -4.1964866    1.2597046  1010000 
  414000   0.84011438   -4.1968573   -4.1968573   -2.9366869  0.021035965   -4.1968573    1.2601703  1010000 
  415000   0.84063279   -4.1983011   -4.1983011   -2.9373532  0.018128964   -4.1983011    1.2609479  1010000 
  416000   0.83936794   -4.1969956   -4.1969956    -2.937945  0.017893924   -4.1969956    1.2590507  1010000 
  417000    0.8395729   -4.1977905   -4.1977905   -2.9384324  0.022448346   -4.1977905    1.2593581  1010000 
  418000   0.84064276   -4.1995523   -4.1995523   -2.9385894   0.01726472   -4.1995523    1.2609629  1010000 
  419000   0.83976792   -4.1989081   -4.1989081   -2.9392575  0.017914052   -4.1989081    1.2596506  1010000 
  420000    0.8392221    -4.198555    -4.198555   -2.9397231  0.017213759    -4.198555    1.2588319  1010000 
  421000     0.839539   -4.1994251   -4.1994251   -2.9401179  0.021503757   -4.1994251    1.2593072  1010000 
  422000    0.8398411   -4.2001166   -4.2001166   -2.9403562  0.021468197   -4.2001166    1.2597604  1010000 
  423000   0.83865356   -4.1988285   -4.1988285   -2.9408494  0.022139937   -4.1988285    1.2579791  1010000 
  424000   0.83855094   -4.1993106   -4.1993106   -2.9414854  0.022272728   -4.1993106    1.2578252  1010000 
  425000   0.83908589   -4.2002313   -4.2002313   -2.9416037  0.017500663   -4.2002313    1.2586276  1010000 
  426000   0.83868222   -4.1998549   -4.1998549   -2.9418328  0.023819028   -4.1998549    1.2580221  1010000 
  427000   0.83962414   -4.2016373   -4.2016373   -2.9422023  0.022115497   -4.2016373     1.259435  1010000 
  428000   0.83972442   -4.2021119   -4.2021119   -2.9425266  0.025333515   -4.2021119    1.2595854  1010000 
  429000   0.83992643   -4.2034663   -4.2034663   -2.9435779  0.020735028   -4.2034663    1.2598884  1010000 
  430000   0.83942307    -4.202261    -4.202261   -2.9431276   0.02408903    -4.202261    1.2591334  1010000 
  431000   0.84061424   -4.2047202   -4.2047202   -2.9438001  0.018164075   -4.2047202    1.2609201  1010000 
  432000    0.8396462   -4.2039004   -4.2039004   -2.9444323  0.024030568   -4.2039004    1.2594681  1010000 
  433000   0.83922992   -4.2047085   -4.2047085   -2.9458648  0.024413272   -4.2047085    1.2588436  1010000 
  434000   0.83961869   -4.2057001   -4.2057001   -2.9462733  0.022640697   -4.2057001    1.2594268  1010000 
  435000   0.83917495    -4.205637    -4.205637   -2.9468758  0.019853279    -4.205637    1.2587612  1010000 
  436000   0.83928311   -4.2053402   -4.2053402   -2.9464168  0.023803467   -4.2053402    1.2589234  1010000 
  437000   0.83992045   -4.2067346   -4.2067346   -2.9468552  0.020520549   -4.2067346    1.2598794  1010000 
  438000   0.83933859   -4.2063731   -4.2063731   -2.9473665  0.021863086   -4.2063731    1.2590066  1010000 
  439000   0.83860935   -4.2064144   -4.2064144   -2.9485016  0.024532971   -4.2064144    1.2579128  1010000 
  440000   0.83855794   -4.2062886   -4.2062886    -2.948453  0.025913631   -4.2062886    1.2578357  1010000 
  441000   0.83925467   -4.2079202   -4.2079202   -2.9490394  0.021270499   -4.2079202    1.2588808  1010000 
  442000   0.83873366   -4.2076384   -4.2076384   -2.9495391  0.018333417   -4.2076384    1.2580992  1010000 
  443000   0.83842181   -4.2071247   -4.2071247   -2.9494932  0.022444338   -4.2071247    1.2576315  1010000 
  444000   0.83929286    -4.207607    -4.207607    -2.948669  0.019520014    -4.207607     1.258938  1010000 
  445000    0.8385277   -4.2072299   -4.2072299   -2.9494396  0.023581792   -4.2072299    1.2577903  1010000 
  446000   0.83735063   -4.2059509   -4.2059509   -2.9499262  0.024886715   -4.2059509    1.2560247  1010000 
  447000   0.83720893   -4.2062228   -4.2062228   -2.9504107  0.024495404   -4.2062228    1.2558122  1010000 
  448000   0.83784809   -4.2079832   -4.2079832   -2.9512124  0.015907559   -4.2079832    1.2567709  1010000 
  449000   0.83683192   -4.2066979   -4.2066979   -2.9514513  0.021677326   -4.2066979    1.2552466  1010000 
  450000   0.83748881   -4.2077511   -4.2077511   -2.9515191  0.021518382   -4.2077511     1.256232  1010000 
  451000   0.83679163   -4.2073626   -4.2073626   -2.9521763  0.020647095   -4.2073626    1.2551862  1010000 
  452000   0.83714449   -4.2080191   -4.2080191   -2.9523037  0.019320049   -4.2080191    1.2557155  1010000 
  453000   0.83684823   -4.2080876   -4.2080876   -2.9528165  0.016625087   -4.2080876    1.2552711  1010000 
  454000   0.83656738   -4.2088856   -4.2088856   -2.9540357  0.020495905   -4.2088856    1.2548498  1010000 
  455000   0.83693685   -4.2101468   -4.2101468   -2.9547427  0.017706644   -4.2101468     1.255404  1010000 
  456000   0.83693266   -4.2100709   -4.2100709   -2.9546732  0.020844582   -4.2100709    1.2553977  1010000 
  457000   0.83702574   -4.2111186   -4.2111186   -2.9555812  0.015976049   -4.2111186    1.2555374  1010000 
  458000   0.83680106   -4.2115476   -4.2115476   -2.9563473  0.019848782   -4.2115476    1.2552003  1010000 
  459000    0.8363822     -4.21092     -4.21092    -2.956348  0.021163661     -4.21092    1.2545721  1010000 
  460000   0.83662329   -4.2120304   -4.2120304   -2.9570967  0.020324476   -4.2120304    1.2549337  1010000 
  461000   0.83710388   -4.2139769   -4.2139769   -2.9583224  0.019995116   -4.2139769    1.2556546  1010000 
  462000   0.83801736   -4.2155553   -4.2155553   -2.9585305  0.021569608   -4.2155553    1.2570248  1010000 
  463000   0.83686602   -4.2144064   -4.2144064   -2.9591086  0.029012882   -4.2144064    1.2552978  1010000 
  464000   0.83718489   -4.2160046   -4.2160046   -2.9602286  0.023894754   -4.2160046    1.2557761  1010000 
  465000   0.83807521   -4.2164855   -4.2164855   -2.9593739  0.025808188   -4.2164855    1.2571116  1010000 
  466000   0.83696056   -4.2160587   -4.2160587   -2.9606191  0.030798304   -4.2160587    1.2554396  1010000 
  467000   0.83706266   -4.2166369   -4.2166369   -2.9610442   0.02772911   -4.2166369    1.2555927  1010000 
  468000   0.83700811   -4.2169217   -4.2169217   -2.9614108  0.027095718   -4.2169217    1.2555109  1010000 
  469000   0.83655398   -4.2169034   -4.2169034   -2.9620736  0.024527207   -4.2169034    1.2548297  1010000 
  470000   0.83644343    -4.217136    -4.217136   -2.9624721  0.025775975    -4.217136    1.2546639  1010000 
  471000   0.83681991   -4.2184361   -4.2184361   -2.9632075  0.025789272   -4.2184361    1.2552286  1010000 
  472000    0.8367755   -4.2179705   -4.2179705   -2.9628085  0.025856962   -4.2179705     1.255162  1010000 
  473000   0.83615796   -4.2176167   -4.2176167    -2.963381       0.0235   -4.2176167    1.2542357  1010000 
  474000   0.83715418   -4.2192134   -4.2192134   -2.9634833  0.022211554   -4.2192134      1.25573  1010000 
  475000    0.8364322   -4.2185644   -4.2185644   -2.9639173  0.021847899   -4.2185644    1.2546471  1010000 
  476000   0.83597627   -4.2176204   -4.2176204   -2.9636572  0.024359524   -4.2176204    1.2539632  1010000 
  477000   0.83718507   -4.2193161   -4.2193161   -2.9635397  0.020337885   -4.2193161    1.2557764  1010000 
  478000   0.83623042   -4.2181035   -4.2181035   -2.9637591  0.026832173   -4.2181035    1.2543444  1010000 
  479000   0.83489193   -4.2172067   -4.2172067   -2.9648701  0.025796425   -4.2172067    1.2523367  1010000 
  480000   0.83523928   -4.2176164   -4.2176164   -2.9647588  0.021744274   -4.2176164    1.2528577  1010000 
  481000   0.83444786   -4.2173537   -4.2173537   -2.9656832  0.018350122   -4.2173537    1.2516705  1010000 
  482000     0.834936   -4.2182932   -4.2182932   -2.9658905  0.016571533   -4.2182932    1.2524028  1010000 
  483000   0.83414216   -4.2179181   -4.2179181   -2.9667061  0.020012889   -4.2179181     1.251212  1010000 
  484000   0.83379799   -4.2165133   -4.2165133   -2.9658175  0.021041877   -4.2165133    1.2506958  1010000 
  485000   0.83353721   -4.2170259   -4.2170259   -2.9667213  0.019370262   -4.2170259    1.2503046  1010000 
  486000   0.83425771   -4.2192447   -4.2192447   -2.9678594  0.018976752   -4.2192447    1.2513853  1010000 
  487000   0.83526561   -4.2206254   -4.2206254   -2.9677282  0.016380654   -4.2206254    1.2528972  1010000 
  488000   0.83450712    -4.219682    -4.219682   -2.9679226  0.020057284    -4.219682    1.2517594  1010000 
  489000   0.83452671   -4.2193136   -4.2193136   -2.9675247  0.023064521   -4.2193136    1.2517888  1010000 
  490000   0.83355639   -4.2188205   -4.2188205   -2.9684872  0.021524515   -4.2188205    1.2503333  1010000 
  491000   0.83478279   -4.2204809   -4.2204809    -2.968308  0.018992187   -4.2204809    1.2521729  1010000 
  492000   0.83413282   -4.2197628   -4.2197628   -2.9685648  0.026624574   -4.2197628     1.251198  1010000 
  493000   0.83476292   -4.2213976   -4.2213976   -2.9692544  0.022048507   -4.2213976    1.2521431  1010000 
  494000   0.83512078   -4.2226821   -4.2226821   -2.9700022  0.024299741   -4.2226821    1.2526799  1010000 
  495000   0.83547716   -4.2244475   -4.2244475    -2.971233  0.022434313   -4.2244475    1.2532145  1010000 
  496000   0.83465764   -4.2244016   -4.2244016   -2.9724164  0.023519408   -4.2244016    1.2519852  1010000 
  497000   0.83424884   -4.2235554   -4.2235554   -2.9721833   0.02602539   -4.2235554     1.251372  1010000 
  498000   0.83441212   -4.2242332   -4.2242332   -2.9726163  0.025254943   -4.2242332    1.2516169  1010000 
  499000   0.83454001   -4.2256091   -4.2256091   -2.9738004   0.02426899   -4.2256091    1.2518088  1010000 
  500000    0.8346576   -4.2266417   -4.2266417   -2.9746566  0.022229983   -4.2266417    1.2519852  1010000 
  501000    0.8343598   -4.2267335   -4.2267335   -2.9751951  0.020960062   -4.2267335    1.2515385  1010000 
  502000     0.833462   -4.2255672   -4.2255672   -2.9753755  0.024997507   -4.2255672    1.2501918  1010000 
  503000   0.83375698   -4.2258451   -4.2258451   -2.9752108  0.023276693   -4.2258451    1.2506342  1010000 
  504000   0.83514949   -4.2280164   -4.2280164   -2.9752934  0.022541209   -4.2280164     1.252723  1010000 
  505000   0.83427944   -4.2277133   -4.2277133   -2.9762954  0.026289781   -4.2277133    1.2514179  1010000 
  506000   0.83374827   -4.2276605   -4.2276605   -2.9770394  0.027908929   -4.2276605    1.2506212  1010000 
  507000   0.83366688   -4.2282125   -4.2282125   -2.9777134  0.023250033   -4.2282125    1.2504991  1010000 
  508000   0.83360672   -4.2284585   -4.2284585   -2.9780497  0.024471841   -4.2284585    1.2504088  1010000 
  509000    0.8335895   -4.2287945   -4.2287945   -2.9784115  0.023219577   -4.2287945     1.250383  1010000 
  510000   0.83358028   -4.2294162   -4.2294162    -2.979047  0.018398492   -4.2294162    1.2503692  1010000 
  511000   0.83190019   -4.2279177   -4.2279177   -2.9800687  0.019844745   -4.2279177     1.247849  1010000 
  512000      0.83252   -4.2284448   -4.2284448   -2.9796661  0.019074939   -4.2284448    1.2487788  1010000 
  513000   0.83222108   -4.2282953   -4.2282953   -2.9799649  0.023413613   -4.2282953    1.2483304  1010000 
  514000   0.83210236   -4.2287968   -4.2287968   -2.9806444   0.02082183   -4.2287968    1.2481523  1010000 
  515000   0.83266613   -4.2295277   -4.2295277   -2.9805298  0.021106882   -4.2295277     1.248998  1010000 
  516000   0.83292194   -4.2305452   -4.2305452   -2.9811635  0.018194169   -4.2305452    1.2493817  1010000 
  517000   0.83249521   -4.2301074   -4.2301074   -2.9813658  0.024813417   -4.2301074    1.2487416  1010000 
  518000   0.83299984   -4.2311993   -4.2311993   -2.9817007  0.021865013   -4.2311993    1.2494985  1010000 
  519000   0.83275813   -4.2310812   -4.2310812   -2.9819453  0.023658569   -4.2310812     1.249136  1010000 
  520000   0.83167112   -4.2303731   -4.2303731   -2.9828677  0.027518421   -4.2303731    1.2475054  1010000 
  521000   0.83181296   -4.2311669   -4.2311669   -2.9834486  0.021971626   -4.2311669    1.2477182  1010000 
  522000   0.83268736   -4.2320183   -4.2320183   -2.9829885  0.022404502   -4.2320183    1.2490298  1010000 
  523000    0.8327136   -4.2324094   -4.2324094   -2.9833403  0.023487946   -4.2324094    1.2490692  1010000 
  524000   0.83224114   -4.2322431   -4.2322431   -2.9838826  0.022620145   -4.2322431    1.2483605  1010000 
  525000    0.8322969   -4.2324542   -4.2324542   -2.9840101    0.0251063   -4.2324542    1.2484441  1010000 
  526000   0.83319457   -4.2345017   -4.2345017   -2.9847111  0.019986573   -4.2345017    1.2497906  1010000 
  527000   0.83241903   -4.2337518   -4.2337518   -2.9851244  0.021026134   -4.2337518    1.2486273  1010000 
  528000   0.83246861   -4.2340518   -4.2340518   -2.9853501  0.023520269   -4.2340518    1.2487017  1010000 
  529000   0.83219801   -4.2334752   -4.2334752   -2.9851795  0.021619159   -4.2334752    1.2482958  1010000 
  530000   0.83155496   -4.2340588   -4.2340588   -2.9867276  0.021799577   -4.2340588    1.2473312  1010000 
  531000   0.83211345   -4.2346229   -4.2346229   -2.9864539  0.023359296   -4.2346229    1.2481689  1010000 
  532000   0.83149089    -4.234156    -4.234156   -2.9869209  0.022251504    -4.234156    1.2472351  1010000 
  533000   0.83145931    -4.235051    -4.235051   -2.9878633  0.021996573    -4.235051    1.2471877  1010000 
  534000   0.83189629   -4.2359697   -4.2359697   -2.9881265  0.020330593   -4.2359697    1.2478432  1010000 
  535000   0.83207243   -4.2357229   -4.2357229   -2.9876155  0.023050811   -4.2357229    1.2481074  1010000 
  536000   0.83180706   -4.2356329   -4.2356329   -2.9879235  0.024928701   -4.2356329    1.2477094  1010000 
  537000   0.83137495   -4.2356459   -4.2356459   -2.9885847  0.020988817   -4.2356459    1.2470612  1010000 
  538000   0.83105448   -4.2361572   -4.2361572   -2.9895767  0.020425704   -4.2361572    1.2465805  1010000 
  539000   0.83161934   -4.2375264   -4.2375264   -2.9900986   0.01952314   -4.2375264    1.2474278  1010000 
  540000   0.83153547   -4.2372829   -4.2372829    -2.989981    0.0226679   -4.2372829     1.247302  1010000 
  541000   0.83087152   -4.2368152   -4.2368152   -2.9905091  0.023205887   -4.2368152     1.246306  1010000 
  542000    0.8311083   -4.2377752   -4.2377752    -2.991114  0.018985787   -4.2377752    1.2466612  1010000 
  543000   0.83054554   -4.2365313   -4.2365313   -2.9907142  0.024384787   -4.2365313    1.2458171  1010000 
  544000   0.83105544   -4.2382766   -4.2382766   -2.9916947  0.020291333   -4.2382766    1.2465819  1010000 
  545000    0.8312863   -4.2386992   -4.2386992   -2.9917709  0.023810579   -4.2386992    1.2469282  1010000 
  546000   0.83025508   -4.2377983   -4.2377983   -2.9924169  0.023294126   -4.2377983    1.2453814  1010000 
  547000   0.83020947   -4.2380406   -4.2380406   -2.9927276  0.023364009   -4.2380406     1.245313  1010000 
  548000   0.83095201    -4.239542    -4.239542   -2.9931152  0.022019143    -4.239542    1.2464268  1010000 
  549000   0.83134692   -4.2403993   -4.2403993   -2.9933801  0.024271832   -4.2403993    1.2470191  1010000 
  550000   0.83005772   -4.2396201   -4.2396201   -2.9945348   0.02245266   -4.2396201    1.2450854  1010000 
  551000   0.83027327    -4.239765    -4.239765   -2.9943564  0.025303471    -4.239765    1.2454087  1010000 
  552000   0.83011848   -4.2405148   -4.2405148   -2.9953383  0.023110342   -4.2405148    1.2451765  1010000 
  553000   0.82932872   -4.2396222   -4.2396222   -2.9956303  0.021984805   -4.2396222    1.2439918  1010000 
  554000   0.83040186   -4.2421421   -4.2421421   -2.9965405  0.018364007   -4.2421421    1.2456016  1010000 
  555000   0.82951047   -4.2410002   -4.2410002   -2.9967357  0.020332187   -4.2410002    1.2442645  1010000 
  556000   0.82924204   -4.2409301   -4.2409301   -2.9970683  0.023497875   -4.2409301    1.2438618  1010000 
  557000   0.82984888   -4.2419662   -4.2419662   -2.9971942  0.020380754   -4.2419662    1.2447721  1010000 
  558000   0.82998553     -4.24207     -4.24207   -2.9970929  0.025283744     -4.24207    1.2449771  1010000 
  559000    0.8311493   -4.2435104   -4.2435104   -2.9967876  0.022282252   -4.2435104    1.2467227  1010000 
  560000    0.8300122   -4.2427279   -4.2427279   -2.9977109  0.023887425   -4.2427279    1.2450171  1010000 
  561000   0.83105292   -4.2439618   -4.2439618   -2.9973837  0.024941818   -4.2439618    1.2465781  1010000 
  562000    0.8311464   -4.2439485   -4.2439485   -2.9972301  0.024109135   -4.2439485    1.2467184  1010000 
  563000   0.83089044   -4.2441622   -4.2441622   -2.9978278  0.020664303   -4.2441622    1.2463344  1010000 
  564000   0.83040805   -4.2438096   -4.2438096   -2.9981987  0.023143869   -4.2438096    1.2456108  1010000 
  565000     0.829562   -4.2434266   -4.2434266   -2.9990849  0.021003646   -4.2434266    1.2443418  1010000 
  566000   0.82997181   -4.2441167   -4.2441167   -2.9991602  0.022146785   -4.2441167    1.2449565  1010000 
  567000   0.82860141   -4.2427531   -4.2427531   -2.9998522  0.022812494   -4.2427531    1.2429009  1010000 
  568000   0.82968655   -4.2450304   -4.2450304   -3.0005018  0.022031875   -4.2450304    1.2445286  1010000 
  569000   0.82957925   -4.2448566   -4.2448566   -3.0004889  0.019395253   -4.2448566    1.2443676  1010000 
  570000   0.82915341   -4.2440816   -4.2440816   -3.0003527  0.023444651   -4.2440816    1.2437289  1010000 
  571000   0.82917384   -4.2441714   -4.2441714   -3.0004119  0.023239247   -4.2441714    1.2437595  1010000 
  572000   0.83006302   -4.2457384   -4.2457384   -3.0006451  0.022370306   -4.2457384    1.2450933  1010000 
  573000   0.82909115   -4.2444714   -4.2444714   -3.0008359  0.021637046   -4.2444714    1.2436355  1010000 
  574000   0.82838359   -4.2440619   -4.2440619   -3.0014878  0.023515123   -4.2440619    1.2425742  1010000 
  575000    0.8290791   -4.2457329   -4.2457329   -3.0021155  0.018759692   -4.2457329    1.2436174  1010000 
  576000   0.82832677   -4.2446073   -4.2446073   -3.0021183  0.020299675   -4.2446073    1.2424889  1010000 
  577000   0.82794347   -4.2446846   -4.2446846   -3.0027706  0.022503042   -4.2446846     1.241914  1010000 
  578000   0.82855481   -4.2466524   -4.2466524   -3.0038215   0.02100085   -4.2466524     1.242831  1010000 
  579000   0.82809458   -4.2466509   -4.2466509   -3.0045102  0.022415156   -4.2466509    1.2421406  1010000 
  580000   0.82806931   -4.2468746   -4.2468746   -3.0047719  0.021552154   -4.2468746    1.2421027  1010000 
  581000   0.82913461   -4.2486167   -4.2486167    -3.004916  0.020640868   -4.2486167    1.2437007  1010000 
  582000   0.82884085    -4.247886    -4.247886    -3.004626  0.022218779    -4.247886      1.24326  1010000 
  583000   0.82902051   -4.2482892   -4.2482892   -3.0047597  0.023388681   -4.2482892    1.2435295  1010000 
  584000   0.82889719   -4.2480706   -4.2480706   -3.0047261  0.025117546   -4.2480706    1.2433446  1010000 
  585000   0.82875267   -4.2487207   -4.2487207   -3.0055929  0.025158528   -4.2487207    1.2431278  1010000 
  586000    0.8282592   -4.2484994   -4.2484994   -3.0061118  0.023912568   -4.2484994    1.2423876  1010000 
  587000   0.82945596   -4.2504473   -4.2504473   -3.0062646  0.025094919   -4.2504473    1.2441827  1010000 
  588000   0.82787843   -4.2490229   -4.2490229   -3.0072065  0.026892432   -4.2490229    1.2418164  1010000 
  589000   0.82814756   -4.2498549   -4.2498549   -3.0076348  0.025595401   -4.2498549    1.2422201  1010000 
  590000   0.82883445   -4.2508822   -4.2508822   -3.0076318  0.023074505   -4.2508822    1.2432504  1010000 
  591000   0.82912907   -4.2511902   -4.2511902   -3.0074978  0.021114252   -4.2511902    1.2436924  1010000 
  592000   0.82857093   -4.2514028   -4.2514028   -3.0085476  0.024226937   -4.2514028    1.2428552  1010000 
  593000   0.82791346    -4.251445    -4.251445    -3.009576  0.025398028    -4.251445     1.241869  1010000 
  594000   0.82792814   -4.2527158   -4.2527158   -3.0108248  0.020315693   -4.2527158     1.241891  1010000 
  595000   0.82737712   -4.2521752   -4.2521752   -3.0111107  0.023233578   -4.2521752    1.2410644  1010000 
  596000   0.82739576   -4.2524212   -4.2524212   -3.0113288  0.022736838   -4.2524212    1.2410924  1010000 
  597000    0.8276376   -4.2518015   -4.2518015   -3.0103463  0.024248168   -4.2518015    1.2414552  1010000 
  598000    0.8270093   -4.2522066   -4.2522066   -3.0116938  0.022173765   -4.2522066    1.2405127  1010000 
  599000   0.82760323   -4.2535596   -4.2535596    -3.012156  0.020164805   -4.2535596    1.2414036  1010000 
  600000   0.82658041   -4.2529436   -4.2529436   -3.0130742  0.020782971   -4.2529436    1.2398694  1010000 
  601000   0.82674294   -4.2533982   -4.2533982    -3.013285  0.024307652   -4.2533982    1.2401132  1010000 
  602000    0.8259427   -4.2520159   -4.2520159   -3.0131031  0.024961199   -4.2520159    1.2389128  1010000 
  603000   0.82748316   -4.2542496   -4.2542496   -3.0130261  0.018739096   -4.2542496    1.2412235  1010000 
  604000   0.82709375   -4.2543242   -4.2543242   -3.0136848  0.021316143   -4.2543242    1.2406394  1010000 
  605000   0.82705071   -4.2551833   -4.2551833   -3.0146085  0.018169207   -4.2551833    1.2405748  1010000 
  606000   0.82667754   -4.2552297   -4.2552297   -3.0152146  0.024959657   -4.2552297    1.2400151  1010000 
  607000   0.82752567   -4.2562091   -4.2562091   -3.0149219  0.020900893   -4.2562091    1.2412873  1010000 
  608000   0.82651473   -4.2553696   -4.2553696   -3.0155987  0.022977145   -4.2553696    1.2397709  1010000 
  609000   0.82631287   -4.2553907   -4.2553907   -3.0159226  0.027641321   -4.2553907    1.2394681  1010000 
  610000   0.82732899    -4.257263    -4.257263   -3.0162707  0.022592188    -4.257263    1.2409923  1010000 
  611000   0.82608287   -4.2553277   -4.2553277   -3.0162046  0.026163066   -4.2553277    1.2391231  1010000 
  612000   0.82710511   -4.2576975   -4.2576975    -3.017041  0.023212458   -4.2576975    1.2406564  1010000 
  613000    0.8269696   -4.2571069   -4.2571069   -3.0166537  0.029328872   -4.2571069    1.2404532  1010000 
  614000   0.82767721   -4.2584343   -4.2584343   -3.0169197  0.025478447   -4.2584343    1.2415146  1010000 
  615000   0.82714079   -4.2582741   -4.2582741   -3.0175641  0.029046437   -4.2582741      1.24071  1010000 
  616000   0.82715273   -4.2589728   -4.2589728    -3.018245  0.026232539   -4.2589728    1.2407279  1010000 
  617000   0.82723204   -4.2588576   -4.2588576   -3.0180108  0.026293442   -4.2588576    1.2408468  1010000 
  618000   0.82633026   -4.2580965   -4.2580965   -3.0186023  0.027064431   -4.2580965    1.2394942  1010000 
  619000   0.82667613   -4.2589213   -4.2589213   -3.0189083  0.024273001   -4.2589213     1.240013  1010000 
  620000   0.82702076   -4.2595587   -4.2595587   -3.0190287  0.022421817   -4.2595587    1.2405299  1010000 
  621000   0.82606397   -4.2587776   -4.2587776   -3.0196829  0.024502372   -4.2587776    1.2390947  1010000 
  622000   0.82669937   -4.2593454   -4.2593454   -3.0192976  0.023769455   -4.2593454    1.2400478  1010000 
  623000   0.82596688   -4.2584458   -4.2584458   -3.0194967  0.027368911   -4.2584458    1.2389491  1010000 
  624000   0.82634229   -4.2598143   -4.2598143   -3.0203021  0.019458479   -4.2598143    1.2395122  1010000 
  625000   0.82595565   -4.2599464   -4.2599464   -3.0210141  0.022330284   -4.2599464    1.2389322  1010000 
  626000   0.82571301   -4.2595457   -4.2595457   -3.0209774  0.024337474   -4.2595457    1.2385683  1010000 
  627000   0.82568807   -4.2596596   -4.2596596   -3.0211287  0.018786121   -4.2596596    1.2385309  1010000 
  628000   0.82557059   -4.2594723   -4.2594723   -3.0211176  0.024355618   -4.2594723    1.2383547  1010000 
  629000   0.82500192   -4.2588639   -4.2588639   -3.0213622   0.02389386   -4.2588639    1.2375017  1010000 
  630000   0.82525432   -4.2594673   -4.2594673    -3.021587   0.02087512   -4.2594673    1.2378803  1010000 
  631000   0.82503281   -4.2593647   -4.2593647   -3.0218167  0.020924084   -4.2593647     1.237548  1010000 
  632000   0.82609552   -4.2608406   -4.2608406   -3.0216986  0.022242073   -4.2608406    1.2391421  1010000 
  633000   0.82581447    -4.260581    -4.260581   -3.0218605  0.020414744    -4.260581    1.2387205  1010000 
  634000   0.82593289   -4.2604875   -4.2604875   -3.0215894  0.026146469   -4.2604875    1.2388981  1010000 
  635000   0.82557662   -4.2606779   -4.2606779   -3.0223142  0.026448943   -4.2606779    1.2383637  1010000 
  636000   0.82600337   -4.2620621   -4.2620621   -3.0230582  0.024516757   -4.2620621    1.2390038  1010000 
  637000   0.82576802   -4.2618495   -4.2618495   -3.0231987   0.02612392   -4.2618495    1.2386508  1010000 
  638000   0.82622917   -4.2629629   -4.2629629   -3.0236204  0.022751024   -4.2629629    1.2393425  1010000 
  639000   0.82486149    -4.261795    -4.261795    -3.024504  0.026336038    -4.261795     1.237291  1010000 
  640000   0.82480031   -4.2617862   -4.2617862    -3.024587  0.020917639   -4.2617862    1.2371992  1010000 
  641000   0.82540343   -4.2632272   -4.2632272   -3.0251232  0.022805922   -4.2632272    1.2381039  1010000 
  642000   0.82501832    -4.263489    -4.263489   -3.0259627  0.024933142    -4.263489    1.2375263  1010000 
  643000   0.82590658   -4.2639975   -4.2639975   -3.0251389   0.02303413   -4.2639975    1.2388586  1010000 
  644000   0.82555172   -4.2647504   -4.2647504   -3.0264241  0.023643091   -4.2647504    1.2383264  1010000 
  645000   0.82520377   -4.2650403   -4.2650403   -3.0272359  0.019976556   -4.2650403    1.2378044  1010000 
  646000   0.82517774   -4.2654777   -4.2654777   -3.0277123  0.022872105   -4.2654777    1.2377654  1010000 
  647000   0.82414241   -4.2641358   -4.2641358   -3.0279234  0.021426199   -4.2641358    1.2362124  1010000 
  648000   0.82446761   -4.2647361   -4.2647361   -3.0280359  0.023350182   -4.2647361    1.2367002  1010000 
  649000   0.82555377   -4.2667473   -4.2667473   -3.0284178  0.021779605   -4.2667473    1.2383294  1010000 
  650000    0.8246653   -4.2664298   -4.2664298    -3.029433  0.021813006   -4.2664298    1.2369967  1010000 
  651000   0.82448533   -4.2669486   -4.2669486   -3.0302218  0.025869983   -4.2669486    1.2367268  1010000 
  652000   0.82509848   -4.2678969   -4.2678969   -3.0302504  0.020988105   -4.2678969    1.2376465  1010000 
  653000   0.82445003   -4.2676258   -4.2676258    -3.030952  0.023639941   -4.2676258    1.2366738  1010000 
  654000   0.82415078   -4.2671796   -4.2671796   -3.0309547  0.026658676   -4.2671796    1.2362249  1010000 
  655000   0.82582348   -4.2696811   -4.2696811   -3.0309471  0.020208944   -4.2696811     1.238734  1010000 
  656000   0.82551628   -4.2691708   -4.2691708   -3.0308976  0.024649703   -4.2691708    1.2382732  1010000 
  657000   0.82429999   -4.2689143   -4.2689143   -3.0324656  0.024825469   -4.2689143    1.2364488  1010000 
  658000   0.82317436    -4.268314    -4.268314   -3.0335537  0.023746134    -4.268314    1.2347603  1010000 
  659000   0.82385111   -4.2694873   -4.2694873   -3.0337118  0.023982747   -4.2694873    1.2357754  1010000 
  660000   0.82286902   -4.2684307   -4.2684307   -3.0341284  0.026112499   -4.2684307    1.2343023  1010000 
  661000   0.82379385   -4.2701888   -4.2701888   -3.0344993   0.02384078   -4.2701888    1.2356896  1010000 
  662000   0.82342994   -4.2704871   -4.2704871   -3.0353434  0.025092964   -4.2704871    1.2351437  1010000 
  663000   0.82391708   -4.2712882   -4.2712882   -3.0354138  0.023159785   -4.2712882    1.2358744  1010000 
  664000   0.82369525   -4.2718866   -4.2718866   -3.0363449  0.021141792   -4.2718866    1.2355417  1010000 
  665000   0.82319197   -4.2711397   -4.2711397   -3.0363529  0.019923679   -4.2711397    1.2347867  1010000 
  666000   0.82317389   -4.2705301   -4.2705301   -3.0357705  0.023090338   -4.2705301    1.2347596  1010000 
  667000   0.82353688    -4.271246    -4.271246   -3.0359419  0.022412142    -4.271246    1.2353041  1010000 
  668000   0.82409406   -4.2719417   -4.2719417   -3.0358018  0.024928453   -4.2719417    1.2361399  1010000 
  669000   0.82422063   -4.2728313   -4.2728313   -3.0365016   0.02265744   -4.2728313    1.2363297  1010000 
  670000   0.82367378   -4.2726493   -4.2726493   -3.0371398  0.025713704   -4.2726493    1.2355094  1010000 
  671000   0.82352326   -4.2727853   -4.2727853   -3.0375017  0.026954479   -4.2727853    1.2352837  1010000 
  672000   0.82320824   -4.2730441   -4.2730441    -3.038233  0.025064706   -4.2730441    1.2348111  1010000 
  673000   0.82204105   -4.2721807   -4.2721807   -3.0391204   0.02647691   -4.2721807    1.2330604  1010000 
  674000   0.82253729   -4.2731436   -4.2731436   -3.0393389  0.020985451   -4.2731436    1.2338047  1010000 
  675000   0.82214445   -4.2726411   -4.2726411   -3.0394256  0.022145776   -4.2726411    1.2332154  1010000 
  676000   0.82231309   -4.2733826   -4.2733826   -3.0399142  0.024950905   -4.2733826    1.2334684  1010000 
  677000   0.82391535   -4.2755885   -4.2755885   -3.0397167  0.017073363   -4.2755885    1.2358718  1010000 
  678000   0.82313132   -4.2746907   -4.2746907   -3.0399949   0.02333503   -4.2746907    1.2346958  1010000 
  679000   0.82242883   -4.2741314   -4.2741314   -3.0404894  0.024822604   -4.2741314     1.233642  1010000 
  680000   0.82321994   -4.2755943   -4.2755943   -3.0407656  0.022105847   -4.2755943    1.2348287  1010000 
  681000   0.82305559   -4.2756186   -4.2756186   -3.0410365  0.024865843   -4.2756186    1.2345822  1010000 
  682000   0.82236273   -4.2745971   -4.2745971   -3.0410543  0.026727788   -4.2745971    1.2335429  1010000 
  683000   0.82289211   -4.2752657   -4.2752657   -3.0409288  0.022583846   -4.2752657    1.2343369  1010000 
  684000   0.82202735   -4.2747196   -4.2747196   -3.0416798  0.023699411   -4.2747196    1.2330398  1010000 
  685000   0.82244936    -4.276022    -4.276022   -3.0423492  0.021863086    -4.276022    1.2336728  1010000 
  686000   0.82191545   -4.2755022   -4.2755022   -3.0426303  0.022086052   -4.2755022     1.232872  1010000 
  687000   0.82209046   -4.2760278   -4.2760278   -3.0428933  0.024093388   -4.2760278    1.2331345  1010000 
  688000   0.82230592   -4.2765495   -4.2765495   -3.0430918  0.023556478   -4.2765495    1.2334577  1010000 
  689000   0.82306547   -4.2780758   -4.2780758   -3.0434788  0.023367808   -4.2780758     1.234597  1010000 
  690000    0.8225587   -4.2766933   -4.2766933   -3.0428565  0.022213221   -4.2766933    1.2338368  1010000 
  691000   0.82312673   -4.2775641   -4.2775641   -3.0428752  0.024717545   -4.2775641    1.2346889  1010000 
  692000   0.82341881    -4.278334    -4.278334    -3.043207  0.023245348    -4.278334     1.235127  1010000 
  693000   0.82235452   -4.2775431   -4.2775431   -3.0440126  0.023710781   -4.2775431    1.2335306  1010000 
  694000   0.82192853   -4.2775369   -4.2775369   -3.0446453  0.022076286   -4.2775369    1.2328916  1010000 
  695000   0.82208806   -4.2775195   -4.2775195   -3.0443886  0.022351831   -4.2775195    1.2331309  1010000 
  696000   0.82238623   -4.2777565   -4.2777565   -3.0441783  0.022468691   -4.2777565    1.2335781  1010000 
  697000   0.82146476   -4.2774671   -4.2774671   -3.0452712  0.022134184   -4.2774671    1.2321959  1010000 
  698000   0.82199962   -4.2777757   -4.2777757   -3.0447775  0.021592795   -4.2777757    1.2329982  1010000 
  699000   0.82276165   -4.2792514   -4.2792514   -3.0451102  0.018230679   -4.2792514    1.2341413  1010000 
  700000   0.82187953   -4.2778685   -4.2778685   -3.0450504  0.023965518   -4.2778685    1.2328181  1010000 
  701000   0.82275297    -4.279056    -4.279056   -3.0449278  0.024067286    -4.279056    1.2341282  1010000 
  702000   0.82246121   -4.2794371   -4.2794371   -3.0457465  0.024609148   -4.2794371    1.2336906  1010000 
  703000   0.82214187   -4.2796935   -4.2796935   -3.0464819  0.023757491   -4.2796935    1.2332116  1010000 
  704000   0.82190705   -4.2796033   -4.2796033   -3.0467439  0.023570512   -4.2796033    1.2328593  1010000 
  705000   0.82180331   -4.2794584   -4.2794584   -3.0467547   0.02213112   -4.2794584    1.2327037  1010000 
  706000   0.82080078   -4.2791701   -4.2791701   -3.0479702  0.022461933   -4.2791701    1.2311999  1010000 
  707000    0.8216949   -4.2810574   -4.2810574   -3.0485162  0.016961882   -4.2810574    1.2325411  1010000 
  708000   0.82151091    -4.280691    -4.280691   -3.0484259  0.020375638    -4.280691    1.2322651  1010000 
  709000   0.82137647   -4.2809453   -4.2809453   -3.0488818  0.020321214   -4.2809453    1.2320635  1010000 
  710000   0.82190272   -4.2825701   -4.2825701   -3.0497172  0.019749003   -4.2825701    1.2328529  1010000 
  711000   0.82097986   -4.2813247   -4.2813247   -3.0498562  0.025432016   -4.2813247    1.2314686  1010000 
  712000     0.820518   -4.2804509   -4.2804509   -3.0496751  0.024696758   -4.2804509    1.2307758  1010000 
[...]
 2833000   0.73477538   -4.6836119   -4.6836119   -3.5814499  0.011304176   -4.6836119     1.102162  1010000 
 2834000    0.7350235   -4.6844263   -4.6844263   -3.5818922   0.01002785   -4.6844263    1.1025342  1010000 
 2835000   0.73447864   -4.6838678   -4.6838678    -3.582151 0.0098598706   -4.6838678    1.1017169  1010000 
 2836000   0.73353818   -4.6834821   -4.6834821    -3.583176 0.0090495456   -4.6834821    1.1003062  1010000 
 2837000   0.73357551   -4.6834325   -4.6834325   -3.5830703 0.0073856816   -4.6834325    1.1003622  1010000 
 2838000   0.73314153   -4.6830728   -4.6830728   -3.5833616 0.0075871112   -4.6830728    1.0997112  1010000 
 2839000   0.73321909   -4.6832063   -4.6832063   -3.5833787 0.0069459508   -4.6832063    1.0998275  1010000 
 2840000   0.73361771   -4.6839463   -4.6839463   -3.5835208   0.01148094   -4.6839463    1.1004255  1010000 
 2841000     0.733367   -4.6836202   -4.6836202   -3.5835708  0.011348675   -4.6836202    1.1000494  1010000 
 2842000   0.73445715   -4.6849319   -4.6849319   -3.5832473  0.011786262   -4.6849319    1.1016846  1010000 
 2843000   0.73415706   -4.6839446   -4.6839446   -3.5827101   0.01429175   -4.6839446    1.1012345  1010000 
 2844000   0.73442828   -4.6844064   -4.6844064    -3.582765  0.012949929   -4.6844064    1.1016413  1010000 
 2845000   0.73371073   -4.6835121   -4.6835121   -3.5829471 0.0087792278   -4.6835121     1.100565  1010000 
 2846000   0.73464236   -4.6859722   -4.6859722   -3.5840097 0.0069465056   -4.6859722    1.1019625  1010000 
 2847000    0.7336397   -4.6854215   -4.6854215   -3.5849631 0.0079291293   -4.6854215    1.1004585  1010000 
 2848000   0.73331609    -4.684846    -4.684846    -3.584873  0.013207355    -4.684846     1.099973  1010000 
 2849000   0.73342524   -4.6848539   -4.6848539   -3.5847171  0.013280356   -4.6848539    1.1001368  1010000 
 2850000   0.73298736   -4.6848802   -4.6848802   -3.5854003 0.0083412119   -4.6848802      1.09948  1010000 
 2851000    0.7338804   -4.6859842   -4.6859842   -3.5851646 0.0073978854   -4.6859842    1.1008195  1010000 
 2852000   0.73267572   -4.6847686   -4.6847686   -3.5857561  0.010062786   -4.6847686    1.0990125  1010000 
 2853000   0.73267929   -4.6851353   -4.6851353   -3.5861175  0.007803037   -4.6851353    1.0990178  1010000 
 2854000   0.73271631   -4.6855261   -4.6855261   -3.5864528 0.0092629392   -4.6855261    1.0990734  1010000 
 2855000    0.7324754   -4.6857321   -4.6857321   -3.5870201  0.011652343   -4.6857321     1.098712  1010000 
 2856000   0.73328531    -4.686773    -4.686773   -3.5868461  0.011267753    -4.686773    1.0999269  1010000 
 2857000   0.73283943   -4.6861401   -4.6861401   -3.5868821  0.010222626   -4.6861401    1.0992581  1010000 
 2858000   0.73252408    -4.685191    -4.685191   -3.5864059   0.01279935    -4.685191     1.098785  1010000 
 2859000   0.73355485   -4.6874411   -4.6874411   -3.5871099 0.0080905372   -4.6874411    1.1003312  1010000 
 2860000   0.73301868   -4.6868223   -4.6868223   -3.5872954  0.011178303   -4.6868223    1.0995269  1010000 
 2861000   0.73370421   -4.6878438   -4.6878438   -3.5872886  0.012460583   -4.6878438    1.1005552  1010000 
 2862000   0.73372276   -4.6885151   -4.6885151   -3.5879321  0.011624726   -4.6885151     1.100583  1010000 
 2863000   0.73289212   -4.6872555   -4.6872555   -3.5879184  0.014310276   -4.6872555    1.0993371  1010000 
 2864000   0.73263668   -4.6875231   -4.6875231   -3.5885691  0.011560533   -4.6875231    1.0989539  1010000 
 2865000    0.7326344   -4.6876767   -4.6876767   -3.5887262  0.010906274   -4.6876767    1.0989505  1010000 
 2866000   0.73250144   -4.6881521   -4.6881521    -3.589401 0.0081138332   -4.6881521    1.0987511  1010000 
 2867000   0.73239692   -4.6887601   -4.6887601   -3.5901658 0.0067668516   -4.6887601    1.0985943  1010000 
 2868000   0.73247757     -4.68874     -4.68874   -3.5900248 0.0085326937     -4.68874    1.0987153  1010000 
 2869000    0.7325731   -4.6894341   -4.6894341   -3.5905755  0.006315699   -4.6894341    1.0988586  1010000 
 2870000   0.73258475   -4.6890002   -4.6890002   -3.5901241 0.0087105248   -4.6890002     1.098876  1010000 
 2871000   0.73228298   -4.6884946   -4.6884946   -3.5900712  0.012994963   -4.6884946    1.0984234  1010000 
 2872000   0.73328879    -4.690129    -4.690129   -3.5901969 0.0098208011    -4.690129    1.0999321  1010000 
 2873000   0.73276114   -4.6895989   -4.6895989   -3.5904583  0.010107816   -4.6895989    1.0991406  1010000 
 2874000   0.73229504   -4.6895976   -4.6895976   -3.5911561  0.009331993   -4.6895976    1.0984415  1010000 
 2875000   0.73313425   -4.6908287   -4.6908287   -3.5911284 0.0096442219   -4.6908287    1.0997003  1010000 
 2876000    0.7332001   -4.6920366   -4.6920366   -3.5922375 0.0062830765   -4.6920366    1.0997991  1010000 
 2877000   0.73261716   -4.6913823   -4.6913823   -3.5924577 0.0086084685   -4.6913823    1.0989246  1010000 
 2878000   0.73235339    -4.690416    -4.690416    -3.591887 0.0089846479    -4.690416     1.098529  1010000 
 2879000   0.73315529   -4.6922949   -4.6922949    -3.592563   0.00877494   -4.6922949    1.0997318  1010000 
 2880000    0.7324053   -4.6909959   -4.6909959    -3.592389  0.012408818   -4.6909959    1.0986069  1010000 
 2881000   0.73191434   -4.6902719   -4.6902719   -3.5924015 0.0080073591   -4.6902719    1.0978704  1010000 
 2882000   0.73189252   -4.6901133   -4.6901133   -3.5922756   0.01119846   -4.6901133    1.0978377  1010000 
 2883000   0.73266841   -4.6913077   -4.6913077   -3.5923061 0.0077188701   -4.6913077    1.0990015  1010000 
 2884000   0.73115275   -4.6891141   -4.6891141   -3.5923861  0.010219632   -4.6891141     1.096728  1010000 
 2885000   0.73133721   -4.6903174   -4.6903174   -3.5933127 0.0089146196   -4.6903174    1.0970047  1010000 
 2886000   0.73137478   -4.6909896   -4.6909896   -3.5939286 0.0045297659   -4.6909896    1.0970611  1010000 
 2887000   0.73169631    -4.690828    -4.690828   -3.5932846 0.0075161012    -4.690828    1.0975434  1010000 
 2888000   0.73123928   -4.6908106   -4.6908106   -3.5939528 0.0064365357   -4.6908106    1.0968578  1010000 
 2889000   0.73142249   -4.6909643   -4.6909643   -3.5938316 0.0098131333   -4.6909643    1.0971327  1010000 
 2890000   0.73165297   -4.6919745   -4.6919745   -3.5944961 0.0081190962   -4.6919745    1.0974784  1010000 
 2891000   0.73172382    -4.692623    -4.692623   -3.5950383 0.0039373819    -4.692623    1.0975846  1010000 
 2892000   0.73187958   -4.6931242   -4.6931242   -3.5953059 0.0064703806   -4.6931242    1.0978183  1010000 
 2893000   0.73122098   -4.6919737   -4.6919737   -3.5951433 0.0090253486   -4.6919737    1.0968304  1010000 
 2894000   0.73257452    -4.694606    -4.694606   -3.5957454 0.0070144078    -4.694606    1.0988607  1010000 
 2895000   0.73157702   -4.6933982   -4.6933982   -3.5960338  0.013561976   -4.6933982    1.0973644  1010000 
 2896000   0.73239431   -4.6942868   -4.6942868   -3.5956965  0.013459562   -4.6942868    1.0985904  1010000 
 2897000   0.73207374   -4.6941584   -4.6941584   -3.5960489  0.014400611   -4.6941584    1.0981095  1010000 
 2898000   0.73279221   -4.6959572   -4.6959572     -3.59677  0.011764708   -4.6959572    1.0991872  1010000 
 2899000   0.73153914   -4.6944434   -4.6944434   -3.5971358  0.012232117   -4.6944434    1.0973076  1010000 
 2900000    0.7322608   -4.6950435   -4.6950435   -3.5966534   0.01330126   -4.6950435    1.0983901  1010000 
 2901000   0.73217646   -4.6959505   -4.6959505   -3.5976869 0.0093350629   -4.6959505    1.0982636  1010000 
 2902000   0.73139801   -4.6956147   -4.6956147   -3.5985188 0.0075323777   -4.6956147    1.0970959  1010000 
 2903000    0.7317205   -4.6965015   -4.6965015   -3.5989219 0.0064057246   -4.6965015    1.0975797  1010000 
 2904000   0.73079689   -4.6954214   -4.6954214   -3.5992272  0.010189701   -4.6954214    1.0961943  1010000 
 2905000   0.73197542   -4.6967521   -4.6967521   -3.5987901 0.0087110349   -4.6967521    1.0979621  1010000 
 2906000   0.73105413   -4.6956434   -4.6956434   -3.5990633 0.0094714532   -4.6956434    1.0965801  1010000 
 2907000   0.73110025   -4.6959344   -4.6959344   -3.5992851  0.010047446   -4.6959344    1.0966493  1010000 
 2908000   0.73157963   -4.6967128   -4.6967128   -3.5993445 0.0079393731   -4.6967128    1.0973684  1010000 
 2909000   0.73199038   -4.6967461   -4.6967461   -3.5987616 0.0073431017   -4.6967461    1.0979845  1010000 
 2910000   0.73160301   -4.6966498   -4.6966498   -3.5992464 0.0065698933   -4.6966498    1.0974034  1010000 
 2911000   0.73110795   -4.6958107   -4.6958107   -3.5991499  0.012702996   -4.6958107    1.0966608  1010000 
 2912000     0.730674   -4.6955798   -4.6955798   -3.5995699  0.013580093   -4.6955798    1.0960099  1010000 
 2913000   0.73084053    -4.695642    -4.695642   -3.5993823  0.014391738    -4.695642    1.0962597  1010000 
 2914000   0.73136581   -4.6964494   -4.6964494   -3.5994018 0.0099466815   -4.6964494    1.0970476  1010000 
 2915000   0.73123424    -4.696467    -4.696467   -3.5996167 0.0071617794    -4.696467    1.0968503  1010000 
 2916000   0.72990534   -4.6952583   -4.6952583   -3.6004014  0.011862169   -4.6952583    1.0948569  1010000 
 2917000   0.72960303   -4.6954846   -4.6954846   -3.6010811 0.0069755335   -4.6954846    1.0944035  1010000 
 2918000   0.73011781   -4.6967436   -4.6967436   -3.6015679 0.0086244503   -4.6967436    1.0951756  1010000 
 2919000    0.7301615   -4.6962425   -4.6962425   -3.6010013 0.0076092919   -4.6962425    1.0952412  1010000 
 2920000   0.73142154   -4.6980625   -4.6980625   -3.6009313 0.0067693924   -4.6980625    1.0971312  1010000 
 2921000   0.73077953   -4.6975382   -4.6975382     -3.60137  0.011173788   -4.6975382    1.0961682  1010000 
 2922000   0.73073378   -4.6981322   -4.6981322   -3.6020326 0.0091665409   -4.6981322    1.0960996  1010000 
 2923000   0.73099157   -4.6991239   -4.6991239   -3.6026376 0.0068827806   -4.6991239    1.0964863  1010000 
 2924000    0.7302295   -4.6981062   -4.6981062    -3.602763  0.010414311   -4.6981062    1.0953432  1010000 
 2925000   0.73059237   -4.6989156   -4.6989156   -3.6030281  0.008463073   -4.6989156    1.0958875  1010000 
 2926000   0.73041781   -4.6994368   -4.6994368   -3.6038112 0.0067277488   -4.6994368    1.0956256  1010000 
 2927000   0.73000837   -4.6993157   -4.6993157   -3.6043042 0.0085341366   -4.6993157    1.0950115  1010000 
 2928000   0.73044531   -4.6993426   -4.6993426   -3.6036758  0.011404795   -4.6993426    1.0956669  1010000 
 2929000   0.73042815   -4.7001811   -4.7001811     -3.60454  0.012376393   -4.7001811    1.0956411  1010000 
 2930000   0.72982322   -4.6992249   -4.6992249   -3.6044912  0.016405653   -4.6992249    1.0947337  1010000 
 2931000   0.73113071   -4.7013814   -4.7013814   -3.6046864  0.012776079   -4.7013814     1.096695  1010000 
 2932000   0.73133405   -4.7020323   -4.7020323   -3.6050323 0.0099813821   -4.7020323        1.097  1010000 
 2933000   0.72952935   -4.7002282   -4.7002282   -3.6059352  0.010168006   -4.7002282    1.0942929  1010000 
 2934000   0.73038946   -4.7017111   -4.7017111    -3.606128 0.0093558077   -4.7017111    1.0955831  1010000 
 2935000    0.7307799   -4.7022009   -4.7022009   -3.6060322  0.006702083   -4.7022009    1.0961688  1010000 
 2936000    0.7303071   -4.7015823   -4.7015823   -3.6061227 0.0085426488   -4.7015823    1.0954596  1010000 
 2937000   0.73026846   -4.7009578   -4.7009578   -3.6055562  0.014082797   -4.7009578    1.0954016  1010000 
 2938000   0.73002032   -4.7010516   -4.7010516   -3.6060222  0.013379271   -4.7010516    1.0950294  1010000 
 2939000     0.730898   -4.7024194   -4.7024194   -3.6060735  0.010052699   -4.7024194    1.0963459  1010000 
 2940000   0.73063866    -4.702329    -4.702329   -3.6063721 0.0088576877    -4.702329    1.0959569  1010000 
 2941000   0.72953974   -4.7009152   -4.7009152   -3.6066066   0.01245593   -4.7009152    1.0943085  1010000 
 2942000   0.72955787    -4.701638    -4.701638   -3.6073023   0.00860513    -4.701638    1.0943357  1010000 
 2943000   0.72968504   -4.7016444   -4.7016444   -3.6071179 0.0053049623   -4.7016444    1.0945265  1010000 
 2944000   0.72953873   -4.7019078   -4.7019078   -3.6076008 0.0047820647   -4.7019078     1.094307  1010000 
 2945000   0.72956699   -4.7014412   -4.7014412   -3.6070918 0.0070023902   -4.7014412    1.0943494  1010000 
 2946000   0.72981308   -4.7019399   -4.7019399   -3.6072213  0.007179712   -4.7019399    1.0947185  1010000 
 2947000   0.72987285    -4.701834    -4.701834   -3.6070258 0.0077001982    -4.701834    1.0948082  1010000 
 2948000   0.72966527   -4.7015974   -4.7015974   -3.6071005  0.015463387   -4.7015974    1.0944968  1010000 
 2949000   0.72935526   -4.7019495   -4.7019495   -3.6079177  0.011098618   -4.7019495    1.0940318  1010000 
 2950000   0.72912401   -4.7016553   -4.7016553   -3.6079704  0.011626386   -4.7016553    1.0936849  1010000 
 2951000   0.72859427   -4.7013657   -4.7013657   -3.6084754 0.0079541284   -4.7013657    1.0928903  1010000 
 2952000   0.72863876   -4.7015745   -4.7015745   -3.6086175  0.011677953   -4.7015745    1.0929571  1010000 
 2953000   0.72899415   -4.7029921   -4.7029921   -3.6095019 0.0072220358   -4.7029921    1.0934901  1010000 
 2954000   0.72953671   -4.7035699   -4.7035699   -3.6092659 0.0090583598   -4.7035699     1.094304  1010000 
 2955000   0.72964914   -4.7040577   -4.7040577   -3.6095851 0.0071451835   -4.7040577    1.0944726  1010000 
 2956000    0.7299813   -4.7044756   -4.7044756   -3.6095048 0.0094809041   -4.7044756    1.0949709  1010000 
 2957000   0.72975017   -4.7039506   -4.7039506   -3.6093264 0.0098969633   -4.7039506    1.0946242  1010000 
 2958000   0.72994949   -4.7044858   -4.7044858   -3.6095627  0.010281675   -4.7044858    1.0949231  1010000 
 2959000   0.73055193   -4.7056048   -4.7056048    -3.609778 0.0097079158   -4.7056048    1.0958268  1010000 
 2960000   0.72958849   -4.7044307   -4.7044307   -3.6100491  0.008983035   -4.7044307    1.0943816  1010000 
 2961000    0.7296763   -4.7038304   -4.7038304    -3.609317  0.011632496   -4.7038304    1.0945134  1010000 
 2962000   0.72924645   -4.7046085   -4.7046085   -3.6107399  0.010778164   -4.7046085    1.0938686  1010000 
 2963000   0.72917811   -4.7046868   -4.7046868   -3.6109208 0.0094533592   -4.7046868    1.0937661  1010000 
 2964000   0.72915616   -4.7049604   -4.7049604   -3.6112272 0.0065017699   -4.7049604    1.0937332  1010000 
 2965000   0.72881488   -4.7053365   -4.7053365   -3.6121153 0.0064256401   -4.7053365    1.0932212  1010000 
 2966000   0.72841227   -4.7046212   -4.7046212   -3.6120038 0.0090736788   -4.7046212    1.0926173  1010000 
 2967000    0.7284001   -4.7055303   -4.7055303   -3.6129313 0.0038345665   -4.7055303    1.0925991  1010000 
 2968000   0.72814322   -4.7055863   -4.7055863   -3.6133725 0.0046794333   -4.7055863    1.0922138  1010000 
 2969000   0.72830819   -4.7059597   -4.7059597   -3.6134985  0.005610357   -4.7059597    1.0924612  1010000 
 2970000   0.72799963   -4.7053651   -4.7053651   -3.6133667 0.0068946724   -4.7053651    1.0919984  1010000 
 2971000   0.72876606   -4.7068577   -4.7068577   -3.6137097 0.0063574785   -4.7068577     1.093148  1010000 
 2972000   0.72816765   -4.7064606   -4.7064606   -3.6142102 0.0090805039   -4.7064606    1.0922504  1010000 
 2973000   0.72899917   -4.7075029   -4.7075029   -3.6140052  0.008299155   -4.7075029    1.0934977  1010000 
 2974000   0.72930304   -4.7083643   -4.7083643   -3.6144109 0.0084250246   -4.7083643    1.0939535  1010000 
 2975000   0.72929751   -4.7085609   -4.7085609   -3.6146157  0.010175585   -4.7085609    1.0939452  1010000 
 2976000   0.72859792    -4.708629    -4.708629   -3.6157332   0.01199502    -4.708629    1.0928958  1010000 
 2977000   0.72895748   -4.7090569   -4.7090569   -3.6156218 0.0082035299   -4.7090569    1.0934351  1010000 
 2978000   0.72833984   -4.7085625   -4.7085625   -3.6160538  0.012862978   -4.7085625    1.0925087  1010000 
 2979000   0.72872876   -4.7093231   -4.7093231    -3.616231  0.011789667   -4.7093231    1.0930921  1010000 
 2980000   0.72877224   -4.7098962   -4.7098962   -3.6167389  0.010153808   -4.7098962    1.0931573  1010000 
 2981000   0.72836159   -4.7090553   -4.7090553    -3.616514   0.01117308   -4.7090553    1.0925413  1010000 
 2982000   0.72894087    -4.709731    -4.709731   -3.6163208 0.0086587983    -4.709731    1.0934102  1010000 
 2983000   0.72817997   -4.7087148   -4.7087148    -3.616446  0.012415543   -4.7087148    1.0922689  1010000 
 2984000   0.72846079   -4.7093885   -4.7093885   -3.6166984 0.0093813815   -4.7093885    1.0926901  1010000 
 2985000   0.72829063    -4.709404    -4.709404   -3.6169691  0.009635263    -4.709404    1.0924349  1010000 
 2986000   0.72810041   -4.7086319   -4.7086319   -3.6164824  0.013303087   -4.7086319    1.0921495  1010000 
 2987000   0.72761045    -4.708148    -4.708148   -3.6167334 0.0094779181    -4.708148    1.0914146  1010000 
 2988000   0.72698767    -4.708291    -4.708291   -3.6178106 0.0060493304    -4.708291    1.0904804  1010000 
 2989000   0.72673913   -4.7079423   -4.7079423   -3.6178346  0.007642388   -4.7079423    1.0901076  1010000 
 2990000   0.72723839   -4.7088094   -4.7088094   -3.6179528 0.0076743046   -4.7088094    1.0908565  1010000 
 2991000   0.72730097     -4.70919     -4.70919   -3.6182396 0.0052279442     -4.70919    1.0909504  1010000 
 2992000   0.72641981   -4.7078652   -4.7078652   -3.6182366  0.011471657   -4.7078652    1.0896286  1010000 
 2993000   0.72777355   -4.7097513   -4.7097513    -3.618092 0.0093730954   -4.7097513    1.0916592  1010000 
 2994000   0.72773307   -4.7098425   -4.7098425    -3.618244 0.0089441547   -4.7098425    1.0915985  1010000 
 2995000   0.72751349    -4.709471    -4.709471   -3.6182019 0.0094651564    -4.709471    1.0912692  1010000 
 2996000   0.72797426   -4.7105067   -4.7105067   -3.6185464 0.0085759414   -4.7105067    1.0919603  1010000 
 2997000    0.7278856   -4.7106803   -4.7106803    -3.618853 0.0094449996   -4.7106803    1.0918273  1010000 
 2998000   0.72782308   -4.7105826   -4.7105826   -3.6188491 0.0098821116   -4.7105826    1.0917335  1010000 
 2999000   0.72777839   -4.7117338   -4.7117338   -3.6200673 0.0096788237   -4.7117338    1.0916665  1010000 
 3000000   0.72752788   -4.7115269   -4.7115269   -3.6202362 0.0068511629   -4.7115269    1.0912907  1010000 
Loop time of 15290.3 on 240 procs for 3000000 steps with 1010000 atoms

Performance: 84759.708 tau/day, 196.203 timesteps/s
99.0% CPU use with 240 MPI tasks x 1 OpenMP threads

MPI task timing breakdown:
Section |  min time  |  avg time  |  max time  |%varavg|  %CPU | %total
-----------------------------------------------------------------------
Pair    | 3468.2     | 5605       | 8724.5     |1172.9 |  99.0 | 36.66
Bond    | 0.94965    | 1.3219     | 2.1965     |  17.5 | 100.0 |  0.01
Neigh   | 1317.8     | 2050.2     | 3188.3     | 668.1 |  99.4 | 13.41
Comm    | 2477.7     | 6847.4     | 9685.6     |1474.5 |  98.8 | 44.78
Output  | 203.27     | 203.96     | 204.14     |   0.4 |  99.8 |  1.33
Modify  | 143.44     | 293.01     | 1159.5     |1268.6 |  99.4 |  1.92
Other   |            | 289.3      |            |       |       |  1.89

Nlocal:        4208.33 ave        4502 max        3848 min
Histogram: 1 1 1 4 12 203 13 2 0 3
Nghost:        5743.31 ave        6173 max        4099 min
Histogram: 34 6 0 0 0 0 0 0 9 191
Neighs:       159044.0 ave      167528 max      113911 min
Histogram: 2 5 9 1 3 0 0 2 117 101

Total # of neighbors = 38170627
Ave neighs/atom = 37.792700
Ave special neighs/atom = 0.0000000
Neighbor list builds = 300000
Dangerous builds = 296999
System init for write_data ...
WARNING: Not all mixed pair coeffs generated from mixing. Use write_data with 'pair ij' option to store all pair coeffs. (src/write_data.cpp:312)
Total wall time: 4:15:02
