LAMMPS (29 Oct 2020)
  using 1 OpenMP thread(s) per MPI task
#Read the equilibrated lj fluid and add nanocubes

units           lj
atom_style      full
atom_modify     map array first cubes
dimension       3
boundary        p p f
pair_style      lj/smooth/linear 2.5

variable        sigma           equal 1.0
variable        epsilon         equal 1.0
read_restart	restart.dat.5000000
Reading restart file ...
  restart file = 24 Dec 2020, LAMMPS = 29 Oct 2020
WARNING: Restart file used different # of processors: 192 vs. 64 (src/read_restart.cpp:697)
  restoring atom style full from restart
  orthogonal box = (0.0000000 0.0000000 0.0000000) to (80.000000 80.000000 160.00000)
  2 by 4 by 8 MPI processor grid
  restoring pair style lj/smooth/linear from restart
  439061 atoms
Finding 1-2 1-3 1-4 neighbors ...
  special bond factors lj:    0.0      0.0      0.0     
  special bond factors coul:  0.0      0.0      0.0     
     0 = max # of 1-2 neighbors
     0 = max # of 1-3 neighbors
     0 = max # of 1-4 neighbors
     1 = max # of special neighbors
  special bonds CPU = 3.153 seconds
  read_restart CPU = 3.463 seconds

group		solvent type 1
439061 atoms in group solvent

read_data	data_96_s2.cubes group cubes add append
Reading data file ...
  orthogonal box = (0.0000000 0.0000000 0.0000000) to (80.000000 80.000000 160.00000)
  2 by 4 by 8 MPI processor grid
WARNING: Pair style in data file differs from currently defined pair style (src/read_data.cpp:588)
  reading atoms ...
  109728 atoms
  reading velocities ...
  109728 velocities
Finding 1-2 1-3 1-4 neighbors ...
  special bond factors lj:    0.0      0.0      0.0     
  special bond factors coul:  0.0      0.0      0.0     
     0 = max # of 1-2 neighbors
     0 = max # of 1-3 neighbors
     0 = max # of 1-4 neighbors
     1 = max # of special neighbors
  special bonds CPU = 0.018 seconds
  read_data CPU = 0.359 seconds

group 		hull  type 2
42816 atoms in group hull
group 		dummy type 3
66912 atoms in group dummy

neighbor      0.4 bin
neigh_modify  exclude molecule/intra cubes


pair_modify   shift yes

pair_coeff    1 1 1.0 1.0 #solvent
pair_coeff    2 2 1.0 1.0 1.12 #np
pair_coeff    3 3 0.0 0.0 0.0 #dummy
pair_coeff    2 3 0.0 0.0 0.0 #np dummy
pair_coeff    1 2 ${sol} 1.0  #np solvent
pair_coeff    1 2 .50 1.0  
pair_coeff    1 3 0.0 0.0 2.0 #dummy solvent

# delete solvent where the cubes are
delete_atoms  overlap 1.0 solvent cubes
System init for delete_atoms ...
Neighbor list info ...
  update every 1 steps, delay 10 steps, check yes
  max neighbors/atom: 2000, page size: 100000
  master list distance cutoff = 2.9
  ghost atom cutoff = 2.9
  binsize = 1.45, bins = 56 56 111
  2 neighbor lists, perpetual/occasional/extra = 1 1 0
  (1) command delete_atoms, occasional
      attributes: full, newton on
      pair build: full/bin
      stencil: full/bin/3d
      bin: standard
  (2) pair lj/smooth/linear, perpetual
      attributes: half, newton on
      pair build: half/bin/newton
      stencil: half/bin/3d/newton
      bin: standard
WARNING: Delete_atoms cutoff > minimum neighbor cutoff (src/delete_atoms.cpp:307)
WARNING: Ignoring 'compress yes' for molecular system (src/delete_atoms.cpp:125)
Deleted 87175 atoms, new total = 461614

pair_coeff    1 1 1.0 1.0 #solvent
pair_coeff    2 2 1.0 1.0 1.12 #np
pair_coeff    3 3 0.0 0.0 0.0 #dummy
pair_coeff    2 3 0.0 0.0 0.0 #np dummy
pair_coeff    1 2 ${sol} 1.0  #np solvent
pair_coeff    1 2 .50 1.0  
pair_coeff    1 3 0.0 0.0 0.0 #dummy solvent


comm_modify   mode multi cutoff/multi 1 2.5 cutoff/multi 2 2.5 cutoff/multi 3 6.95

reset_timestep 	0

balance 	1.05 shift z 10 1.05
Balancing ...
Neighbor list info ...
  update every 1 steps, delay 10 steps, check yes
  max neighbors/atom: 2000, page size: 100000
  master list distance cutoff = 2.9
  ghost atom cutoff = 6.95
  binsize = 1.45, bins = 56 56 111
  1 neighbor lists, perpetual/occasional/extra = 1 0 0
  (1) pair lj/smooth/linear, perpetual
      attributes: half, newton on
      pair build: half/bin/newton
      stencil: half/bin/3d/newton
      bin: standard
 rebalancing time: 0.015 seconds
  iteration count = 4
  initial/final maximal load/proc = 11407.000 8781.0000
  initial/final imbalance factor  = 1.5815118 1.2174327
  x cuts: 0.0000000 0.5 1.0000000
  y cuts: 0.0000000 0.25 0.5 0.75 1.0000000
  z cuts: 0.0000000 0.0859375 0.1640625 0.2578125 0.328125 0.421875 0.4921875 0.5703125 1.0000000

####################### WALLS ###########################

variable       epsilonWall equal 2*${epsilon}
variable       epsilonWall equal 2*1
variable       repulsive   equal   0.7147*${sigma}
variable       repulsive   equal   0.7147*1
variable       full	   equal   3*${sigma}
variable       full	   equal   3*1
region         lowWall block EDGE EDGE EDGE EDGE EDGE 2

fix            topWall all wall/lj93 zhi EDGE 	       ${epsilonWall} ${sigma} ${repulsive} units box
fix            topWall all wall/lj93 zhi EDGE 	       2 ${sigma} ${repulsive} units box
fix            topWall all wall/lj93 zhi EDGE 	       2 1 ${repulsive} units box
fix            topWall all wall/lj93 zhi EDGE 	       2 1 0.7147 units box
fix            lowSol solvent wall/lj93 zlo EDGE                ${epsilonWall} ${sigma} ${full} units box
fix            lowSol solvent wall/lj93 zlo EDGE                2 ${sigma} ${full} units box
fix            lowSol solvent wall/lj93 zlo EDGE                2 1 ${full} units box
fix            lowSol solvent wall/lj93 zlo EDGE                2 1 3 units box
fix 	       lowCub cubes wall/lj93 zlo EDGE                ${epsilonWall} ${sigma} ${repulsive} units box
fix 	       lowCub cubes wall/lj93 zlo EDGE                2 ${sigma} ${repulsive} units box
fix 	       lowCub cubes wall/lj93 zlo EDGE                2 1 ${repulsive} units box
fix 	       lowCub cubes wall/lj93 zlo EDGE                2 1 0.7147 units box


###################### COMPUTES ##########################

compute        bin1 solvent chunk/atom bin/1d z lower 1.0 units box
compute        bin3 solvent chunk/atom bin/3d x lower 1.0 y lower 1.0 z lower 1.0 units box

compute 	pe solvent 	   pe/atom
compute 	pe2 all 	   pe/atom

######################  FIXES ############################


fix             peclet solvent ave/chunk 10 10 10000 bin1 density/number norm                  none ave one file density.profile

fix              temp solvent ave/chunk 10 10 10000 bin1 temp norm                  none ave one file temp.profile

fix 		 dens solvent ave/chunk 10 10 500000 bin3 density/number norm 		 none ave one file dens3.profile

fix		 temp2 solvent ave/chunk 10 10 500000 bin3 temp norm none ave one file temp3.profile

fix 		pe solvent ave/chunk 1 1 500000 bin3 c_pe norm none ave one file pe3.profile

fix             1 cubes rigid/nve/small molecule
  create bodies CPU = 0.009 seconds
  96 rigid bodies with 109728 atoms
  6.9282032 = max distance from body owner to body atom

fix             2 solvent nve# temp ${temp} ${temp} 10


## Thermostat
region          regthermo block EDGE EDGE EDGE EDGE 0 15
group           thermo dynamic solvent region regthermo every 1000
dynamic group thermo defined
fix             3 thermo langevin ${temp} ${temp} 10 156453
fix             3 thermo langevin 0.8 ${temp} 10 156453
fix             3 thermo langevin 0.8 0.8 10 156453


#### Load balancing

fix             bal all balance 1000 1.05 shift z 10 1.05

############### Diagnostics and computes ###################

compute        	com cubes          rigid/local   1 mol x y z
compute        	quat cubes         rigid/local   1 mol quatw quati quatj quatk

compute 	cc2 cubes 	   chunk/atom 	 molecule
compute 	msd cubes 	   msd/chunk 	 cc2

fix 		msd all ave/time  1 1 10000 c_msd[*] file dump.msd ave one mode vector


dump            1 all custom 500000 dump.lammpstrj id mol type x y z vx vy vz c_pe2
dump		sol  solvent custom 500000 dump.soltrj id x y z vx vy vz c_pe
dump		cubetrj cubes custom 500000 cubes.lammpstrj id mol type x y z vx vy vz
dump            com cubes local 100000 dump.*.xyz c_com[*]
dump	        xyz hull xyz 100000 cubes.xyz
dump            quat cubes      local 100000 dump.*.quat c_quat[*]
dump		order cubes 	local 100000 dump.*.order c_com[*] c_quat[*]
#dump		mol cubes molfile 10000 mol.xyz xyz


dump            2 all image 100000 image.*.png type type zoom 1.5 size 1280 720
dump_modify     2 pad 8
dump		image cubes image 100000 image_cubes.*.png type type zoom 1.5 size 1280 720
dump_modify	image pad 8
dump            3 all movie 5000 movie.avi type type zoom 1.5 size 1280 720
dump		4 cubes movie 5000 movie_cubes.avi type type size 1280 720


thermo          1000
thermo_style    custom step temp epair evdwl etotal press pe ke atoms

restart         1000000 restart.dat
timestep        0.005
timer           full
New timer settings: style=full  mode=nosync  timeout=off

run 		10000000
Per MPI rank memory allocation (min/avg/max) = 87.32 | 99.30 | 101.4 Mbytes
Step Temp E_pair E_vdwl TotEng Press PotEng KinEng Atoms 
       0   0.80832489    -2.464064    -2.464064   -1.5392894 -0.015240424    -2.464064   0.92477461   461614 
    1000   0.80434395   -2.4591813   -2.4591813   -1.5389612  0.040141574   -2.4591813   0.92022016   461614 
    2000   0.80352047    -2.457565    -2.457565    -1.538287  0.037486609    -2.457565   0.91927804   461614 
    3000   0.80566185   -2.4601212   -2.4601212   -1.5383933  0.032593536   -2.4601212   0.92172791   461614 
    4000   0.80339471   -2.4576315   -2.4576315   -1.5384974  0.043180235   -2.4576315   0.91913417   461614 
    5000   0.80513971   -2.4601107   -2.4601107   -1.5389802  0.041483327   -2.4601107   0.92113056   461614 
    6000    0.8037404   -2.4582151   -2.4582151   -1.5386855  0.036504554   -2.4582151   0.91952965   461614 
    7000   0.80304609   -2.4579399   -2.4579399   -1.5392045   0.03808972   -2.4579399   0.91873532   461614 
    8000   0.80247273   -2.4588405   -2.4588405   -1.5407611  0.031054928   -2.4588405   0.91807936   461614 
    9000   0.80311352   -2.4604204   -2.4604204    -1.541608   0.03491899   -2.4604204   0.91881246   461614 
   10000   0.80189903   -2.4602036   -2.4602036   -1.5427806   0.03812174   -2.4602036   0.91742301   461614 
   11000   0.80352246   -2.4607682   -2.4607682   -1.5414878  0.033664956   -2.4607682   0.91928032   461614 
   12000   0.80200064    -2.458632    -2.458632   -1.5410928  0.037011171    -2.458632   0.91753926   461614 
   13000   0.80315166   -2.4590792   -2.4590792   -1.5402231  0.033303395   -2.4590792   0.91885611   461614 
   14000   0.80382576   -2.4595306   -2.4595306   -1.5399033  0.036377037   -2.4595306   0.91962732   461614 
   15000   0.80384343   -2.4592833   -2.4592833   -1.5396358  0.037985693   -2.4592833   0.91964752   461614 
   16000   0.80276571   -2.4577999   -2.4577999   -1.5393853   0.03676368   -2.4577999   0.91841455   461614 
   17000   0.80298531   -2.4583623   -2.4583623   -1.5396965  0.032455488   -2.4583623   0.91866578   461614 
   18000   0.80250071   -2.4580505   -2.4580505   -1.5399391  0.031690471   -2.4580505   0.91811137   461614 
   19000   0.80295462   -2.4582882   -2.4582882   -1.5396575  0.034130419   -2.4582882   0.91863068   461614 
   20000   0.80201134   -2.4577876   -2.4577876    -1.540236  0.038425432   -2.4577876   0.91755151   461614 
   21000   0.80192659   -2.4580565   -2.4580565   -1.5406019  0.036803331   -2.4580565   0.91745454   461614 
   22000   0.80390094   -2.4595947   -2.4595947   -1.5398814  0.030209757   -2.4595947   0.91971332   461614 
   23000   0.80234204   -2.4574959   -2.4574959    -1.539566  0.035166002   -2.4574959   0.91792984   461614 
   24000   0.80293437    -2.459504    -2.459504   -1.5408965  0.038458423    -2.459504   0.91860751   461614 
   25000   0.80282361   -2.4590294   -2.4590294   -1.5405486  0.035603459   -2.4590294    0.9184808   461614 
   26000   0.80248811   -2.4588884   -2.4588884   -1.5407914  0.034882283   -2.4588884   0.91809696   461614 
   27000   0.80345656   -2.4594083   -2.4594083   -1.5402034  0.038528874   -2.4594083   0.91920493   461614 
   28000   0.80502546   -2.4601159   -2.4601159    -1.539116  0.035695608   -2.4601159   0.92099985   461614 
   29000   0.80429445    -2.459124    -2.459124   -1.5389605  0.037084064    -2.459124   0.92016352   461614 
   30000   0.80471027   -2.4596821   -2.4596821   -1.5390428  0.034796339   -2.4596821   0.92063925   461614 
   31000   0.80300555   -2.4580353   -2.4580353   -1.5393463  0.038110368   -2.4580353   0.91868894   461614 
   32000   0.80354909   -2.4589817   -2.4589817    -1.539671  0.036449321   -2.4589817   0.91931079   461614 
   33000   0.80273343   -2.4581319   -2.4581319   -1.5397542   0.04091821   -2.4581319   0.91837762   461614 
   34000   0.80417056   -2.4602697   -2.4602697   -1.5402479  0.032903885   -2.4602697   0.92002179   461614 
   35000   0.80317375   -2.4590831   -2.4590831   -1.5402017  0.035739597   -2.4590831   0.91888138   461614 
   36000   0.80301009   -2.4589119   -2.4589119   -1.5402178  0.032249948   -2.4589119   0.91869414   461614 
   37000    0.8037527   -2.4599958   -2.4599958   -1.5404521  0.035571362   -2.4599958   0.91954373   461614 
   38000   0.80464679   -2.4609269   -2.4609269   -1.5403603  0.033056108   -2.4609269   0.92056663   461614 
   39000   0.80429265   -2.4596982   -2.4596982   -1.5395367   0.03642467   -2.4596982   0.92016146   461614 
   40000   0.80222335   -2.4579769   -2.4579769   -1.5401829  0.034720146   -2.4579769   0.91779405   461614 
   41000   0.80309271   -2.4592613   -2.4592613   -1.5404726  0.028028198   -2.4592613   0.91878866   461614 
   42000   0.80315694    -2.459822    -2.459822   -1.5409598  0.033449335    -2.459822   0.91886214   461614 
   43000   0.80176285    -2.458509    -2.458509   -1.5412418  0.030305105    -2.458509   0.91726721   461614 
   44000   0.80284157   -2.4594825   -2.4594825   -1.5409811  0.033365404   -2.4594825   0.91850134   461614 
   45000   0.80164663   -2.4584984   -2.4584984   -1.5413642  0.030554541   -2.4584984   0.91713425   461614 
   46000   0.80266103   -2.4598002   -2.4598002   -1.5415054  0.036517143   -2.4598002   0.91829479   461614 
   47000   0.80361959   -2.4604287   -2.4604287   -1.5410373  0.033021408   -2.4604287   0.91939144   461614 
   48000   0.80295077   -2.4597917   -2.4597917   -1.5411655  0.038785235   -2.4597917   0.91862627   461614 
   49000   0.80302667   -2.4592923   -2.4592923   -1.5405792  0.034476246   -2.4592923    0.9187131   461614 
   50000   0.80336795   -2.4597618   -2.4597618   -1.5406582  0.031271562   -2.4597618   0.91910355   461614 
   51000   0.80193335   -2.4579946   -2.4579946   -1.5405323  0.038478604   -2.4579946   0.91746228   461614 
   52000   0.80334607   -2.4588903   -2.4588903   -1.5398117  0.031957777   -2.4588903   0.91907851   461614 
   53000    0.8035463   -2.4587517   -2.4587517   -1.5394441  0.040312999   -2.4587517    0.9193076   461614 
   54000   0.80366997   -2.4594793   -2.4594793   -1.5400302  0.040338168   -2.4594793   0.91944908   461614 
   55000   0.80389311   -2.4605372   -2.4605372   -1.5408328  0.030821163   -2.4605372   0.91970437   461614 
   56000   0.80299114   -2.4598019   -2.4598019   -1.5411295  0.032862314   -2.4598019   0.91867245   461614 
   57000   0.80175984    -2.458697    -2.458697   -1.5414332  0.031887412    -2.458697   0.91726377   461614 
   58000   0.80161068   -2.4583323   -2.4583323   -1.5412392  0.033320385   -2.4583323   0.91709313   461614 
   59000   0.80372424   -2.4604878   -2.4604878   -1.5409766  0.033906566   -2.4604878   0.91951117   461614 
   60000   0.80213315   -2.4595741   -2.4595741   -1.5418833  0.040680419   -2.4595741   0.91769087   461614 
   61000   0.80325653   -2.4603124   -2.4603124   -1.5413363   0.03421381   -2.4603124   0.91897608   461614 
   62000   0.80229968   -2.4596374   -2.4596374   -1.5417561  0.035671888   -2.4596374   0.91788139   461614 
   63000   0.80394218   -2.4614844   -2.4614844   -1.5417239  0.031467906   -2.4614844    0.9197605   461614 
   64000   0.80233346   -2.4601135   -2.4601135   -1.5421935  0.035043103   -2.4601135   0.91792003   461614 
   65000   0.80206244   -2.4595699   -2.4595699   -1.5419599  0.038420676   -2.4595699   0.91760997   461614 
   66000   0.80315609   -2.4608632   -2.4608632    -1.542002  0.032918417   -2.4608632   0.91886117   461614 
   67000   0.80501352   -2.4627904   -2.4627904   -1.5418042  0.029519086   -2.4627904   0.92098619   461614 
   68000   0.80526631   -2.4622081   -2.4622081   -1.5409327  0.040242171   -2.4622081   0.92127539   461614 
   69000   0.80181819   -2.4593752   -2.4593752   -1.5420447  0.035554055   -2.4593752   0.91733052   461614 
   70000   0.80262757   -2.4600477   -2.4600477   -1.5417912  0.037764177   -2.4600477    0.9182565   461614 
   71000   0.80462562   -2.4611121   -2.4611121   -1.5405697   0.03539667   -2.4611121   0.92054241   461614 
   72000   0.80259313    -2.458557    -2.458557   -1.5403398  0.033835161    -2.458557    0.9182171   461614 
   73000   0.80460476   -2.4609764   -2.4609764   -1.5404578  0.035243906   -2.4609764   0.92051854   461614 
   74000   0.80358838   -2.4601963   -2.4601963   -1.5408406  0.031053064   -2.4601963   0.91935573   461614 
   75000   0.80301401   -2.4595495   -2.4595495   -1.5408509  0.037077078   -2.4595495   0.91869862   461614 
   76000   0.80292688   -2.4592934   -2.4592934   -1.5406944  0.030241905   -2.4592934   0.91859894   461614 
   77000   0.80266708   -2.4590181   -2.4590181   -1.5407164  0.034394862   -2.4590181   0.91830172   461614 
   78000   0.80199277   -2.4578244   -2.4578244   -1.5402942  0.032465629   -2.4578244   0.91753026   461614 
   79000    0.8024555    -2.458706    -2.458706   -1.5406464  0.032841096    -2.458706   0.91805965   461614 
   80000   0.80283957   -2.4586246   -2.4586246   -1.5401255  0.032253501   -2.4586246   0.91849905   461614 
   81000   0.80214185   -2.4580735   -2.4580735   -1.5403727  0.032531273   -2.4580735   0.91770082   461614 
   82000   0.80301395   -2.4589095   -2.4589095   -1.5402109   0.03166837   -2.4589095   0.91869855   461614 
   83000   0.80415022   -2.4601547   -2.4601547   -1.5401561  0.033841055   -2.4601547   0.91999852   461614 
   84000    0.8044456   -2.4600003   -2.4600003   -1.5396638  0.034653025   -2.4600003   0.92033645   461614 
   85000   0.80519878    -2.461756    -2.461756   -1.5405578  0.034141771    -2.461756   0.92119813   461614 
   86000   0.80272817   -2.4599847   -2.4599847   -1.5416131  0.030349392   -2.4599847   0.91837161   461614 
   87000   0.80471846   -2.4621478   -2.4621478   -1.5414992  0.034616685   -2.4621478   0.92064862   461614 
   88000   0.80468781   -2.4610005   -2.4610005   -1.5403869  0.035288723   -2.4610005   0.92061355   461614 
   89000   0.80425609   -2.4610768   -2.4610768   -1.5409571  0.031527107   -2.4610768   0.92011964   461614 
   90000   0.80332928   -2.4602764   -2.4602764   -1.5412171  0.035888388   -2.4602764   0.91905931   461614 
   91000   0.80314369   -2.4606358   -2.4606358   -1.5417888  0.035943707   -2.4606358   0.91884698   461614 
   92000   0.80267224   -2.4607881   -2.4607881   -1.5424805  0.034549453   -2.4607881   0.91830761   461614 
   93000   0.80357829    -2.461275    -2.461275   -1.5419308   0.03705215    -2.461275   0.91934419   461614 
   94000    0.8022387   -2.4595309   -2.4595309   -1.5417193  0.037583435   -2.4595309   0.91781162   461614 
   95000   0.80399016   -2.4616957   -2.4616957   -1.5418803  0.043620197   -2.4616957   0.91981539   461614 
   96000   0.80364493   -2.4604236   -2.4604236   -1.5410032  0.031985599   -2.4604236   0.91942043   461614 
   97000   0.80391667   -2.4603623   -2.4603623    -1.540631  0.030940221   -2.4603623   0.91973133   461614 
   98000   0.80480654   -2.4615368   -2.4615368   -1.5407874  0.037363013   -2.4615368   0.92074939   461614 
   99000   0.80443361   -2.4598455   -2.4598455   -1.5395227  0.039649755   -2.4598455   0.92032274   461614 
  100000   0.80204254   -2.4584228   -2.4584228   -1.5408356  0.037509435   -2.4584228   0.91758719   461614 
  101000    0.8026177   -2.4592081   -2.4592081   -1.5409629  0.037460848   -2.4592081   0.91824522   461614 
  102000   0.80192495   -2.4586917   -2.4586917    -1.541239  0.038209095   -2.4586917   0.91745267   461614 
  103000   0.80293877   -2.4600849   -2.4600849   -1.5414724  0.034278713   -2.4600849   0.91861254   461614 
  104000   0.80256594   -2.4602074   -2.4602074   -1.5420213  0.029203011   -2.4602074   0.91818601   461614 
  105000    0.8023286   -2.4602294   -2.4602294   -1.5423149  0.029451557   -2.4602294   0.91791447   461614 
  106000   0.80225807    -2.460067    -2.460067   -1.5422332  0.031362644    -2.460067   0.91783378   461614 
  107000   0.80228285   -2.4601123   -2.4601123   -1.5422502  0.038711406   -2.4601123   0.91786213   461614 
  108000    0.8031044   -2.4598723   -2.4598723   -1.5410703  0.034711914   -2.4598723   0.91880203   461614 
  109000   0.80329698    -2.459184    -2.459184   -1.5401616  0.036658422    -2.459184   0.91902236   461614 
  110000   0.80285342   -2.4585266   -2.4585266   -1.5400117  0.042181568   -2.4585266   0.91851489   461614 
  111000   0.80439739   -2.4608269   -2.4608269   -1.5405456   0.03826198   -2.4608269    0.9202813   461614 
  112000   0.80309993   -2.4589039   -2.4589039    -1.540107  0.038334545   -2.4589039   0.91879692   461614 
  113000   0.80536188   -2.4617285   -2.4617285   -1.5403438  0.032895233   -2.4617285   0.92138473   461614 
  114000   0.80323166   -2.4586632   -2.4586632   -1.5397155  0.036090077   -2.4586632   0.91894763   461614 
  115000   0.80489572   -2.4608626   -2.4608626   -1.5400112  0.036230993   -2.4608626   0.92085142   461614 
  116000   0.80279554   -2.4594089   -2.4594089   -1.5409602  0.035778382   -2.4594089   0.91844868   461614 
  117000   0.80378249   -2.4600043   -2.4600043   -1.5404264  0.035846311   -2.4600043   0.91957781   461614 
  118000    0.8019556   -2.4584073   -2.4584073   -1.5409196  0.037157302   -2.4584073   0.91748773   461614 
  119000   0.80306067   -2.4598244   -2.4598244   -1.5410724  0.028744062   -2.4598244     0.918752   461614 
  120000   0.80397274   -2.4618917   -2.4618917   -1.5420962  0.027914225   -2.4618917   0.91979547   461614 
  121000   0.80213746   -2.4588412   -2.4588412   -1.5411454  0.032370174   -2.4588412   0.91769579   461614 
  122000   0.80315242   -2.4602489   -2.4602489   -1.5413919  0.035209754   -2.4602489   0.91885697   461614 
  123000   0.80186181   -2.4592259   -2.4592259   -1.5418454  0.036311465   -2.4592259   0.91738043   461614 
  124000   0.80390652   -2.4608496   -2.4608496   -1.5411299  0.042567381   -2.4608496   0.91971971   461614 
  125000   0.80517444   -2.4610327   -2.4610327   -1.5398624   0.03802396   -2.4610327   0.92117028   461614 
  126000   0.80346707   -2.4598956   -2.4598956   -1.5406786   0.03497857   -2.4598956   0.91921695   461614 
  127000   0.80374118   -2.4594896   -2.4594896   -1.5399591  0.036706776   -2.4594896   0.91953056   461614 
  128000   0.80500544   -2.4602856   -2.4602856   -1.5393086  0.034403138   -2.4602856   0.92097695   461614 
  129000   0.80495759   -2.4603607   -2.4603607   -1.5394385  0.036952018   -2.4603607    0.9209222   461614 
  130000   0.80359637   -2.4596235   -2.4596235   -1.5402586   0.03412467   -2.4596235   0.91936488   461614 
  131000   0.80338095   -2.4595181   -2.4595181   -1.5403997  0.040061581   -2.4595181   0.91911842   461614 
  132000    0.8034173   -2.4603383   -2.4603383   -1.5411783  0.039529454   -2.4603383   0.91916001   461614 
  133000   0.80203799   -2.4584463   -2.4584463   -1.5408644  0.039509132   -2.4584463   0.91758199   461614 
  134000   0.80479128   -2.4621959   -2.4621959    -1.541464  0.033830819   -2.4621959   0.92073193   461614 
  135000   0.80393374   -2.4602996   -2.4602996   -1.5405488  0.036231012   -2.4602996   0.91975086   461614 
  136000   0.80359637    -2.459594    -2.459594   -1.5402291  0.034650297    -2.459594   0.91936488   461614 
  137000   0.80122717   -2.4572873   -2.4572873   -1.5406329  0.035388626   -2.4572873   0.91665437   461614 
  138000     0.801508   -2.4577478   -2.4577478   -1.5407721  0.038677631   -2.4577478   0.91697565   461614 
  139000   0.80270454   -2.4591148   -2.4591148   -1.5407702  0.037988543   -2.4591148   0.91834457   461614 
  140000   0.80330932   -2.4597559   -2.4597559   -1.5407194  0.029740516   -2.4597559   0.91903648   461614 
  141000    0.8027353   -2.4582973   -2.4582973   -1.5399175  0.034773494   -2.4582973   0.91837976   461614 
  142000   0.80337938   -2.4594839   -2.4594839   -1.5403673  0.032235507   -2.4594839   0.91911663   461614 
  143000   0.80300005   -2.4582965   -2.4582965   -1.5396139  0.032864268   -2.4582965   0.91868265   461614 
  144000   0.80387071   -2.4593128   -2.4593128    -1.539634  0.034624199   -2.4593128   0.91967874   461614 
  145000   0.80258815   -2.4573515   -2.4573515   -1.5391401   0.03184342   -2.4573515   0.91821141   461614 
  146000   0.80276689   -2.4580487   -2.4580487   -1.5396328  0.033180724   -2.4580487    0.9184159   461614 
  147000    0.8031285   -2.4583559   -2.4583559   -1.5395263  0.037129487   -2.4583559    0.9188296   461614 
  148000   0.80371984   -2.4586225   -2.4586225   -1.5391163  0.039552244   -2.4586225   0.91950613   461614 
  149000   0.80349793   -2.4585894   -2.4585894   -1.5393372  0.032023919   -2.4585894   0.91925226   461614 
  150000   0.80393873   -2.4593991   -2.4593991   -1.5396426  0.037673941   -2.4593991   0.91975655   461614 
  151000   0.80310342   -2.4583366   -2.4583366   -1.5395357  0.035438559   -2.4583366   0.91880091   461614 
  152000   0.80325116   -2.4576832   -2.4576832   -1.5387132  0.034096942   -2.4576832   0.91896993   461614 
  153000   0.80402413   -2.4590292   -2.4590292    -1.539175  0.036438746   -2.4590292   0.91985426   461614 
  154000   0.80335808   -2.4591881   -2.4591881   -1.5400958  0.035790632   -2.4591881   0.91909225   461614 
  155000   0.80509567   -2.4606111   -2.4606111    -1.539531  0.036946226   -2.4606111   0.92108018   461614 
  156000   0.80405938   -2.4599136   -2.4599136    -1.540019  0.030289333   -2.4599136   0.91989459   461614 
  157000   0.80436626    -2.460074    -2.460074   -1.5398283  0.035705118    -2.460074   0.92024568   461614 
  158000   0.80389445   -2.4580925   -2.4580925   -1.5383866  0.042456158   -2.4580925   0.91970589   461614 
  159000   0.80505698   -2.4589718   -2.4589718   -1.5379359  0.033352738   -2.4589718   0.92103591   461614 
  160000   0.80466166   -2.4599652   -2.4599652   -1.5393815  0.038783621   -2.4599652   0.92058364   461614 
  161000   0.80332553   -2.4592564   -2.4592564   -1.5402014  0.038117956   -2.4592564   0.91905502   461614 
  162000   0.80546359   -2.4611352   -2.4611352   -1.5396341  0.032364903   -2.4611352   0.92150109   461614 
  163000    0.8031462   -2.4591603   -2.4591603   -1.5403105  0.034137057   -2.4591603   0.91884986   461614 
  164000   0.80362653   -2.4594834   -2.4594834    -1.540084  0.035484085   -2.4594834   0.91939938   461614 
  165000   0.80128599   -2.4569303   -2.4569303   -1.5402086  0.037647202   -2.4569303   0.91672166   461614 
  166000   0.80270448    -2.458082    -2.458082   -1.5397375  0.036933572    -2.458082   0.91834451   461614 
  167000   0.80454815   -2.4604086   -2.4604086   -1.5399549  0.034053867   -2.4604086   0.92045377   461614 
  168000   0.80505021   -2.4600344   -2.4600344   -1.5390062  0.036543171   -2.4600344   0.92102816   461614 
  169000   0.80374308   -2.4596193   -2.4596193   -1.5400865   0.03928675   -2.4596193   0.91953272   461614 
  170000   0.80262213    -2.457229    -2.457229   -1.5389787  0.039695509    -2.457229   0.91825029   461614 
  171000   0.80510678   -2.4604823   -2.4604823   -1.5393894   0.03473601   -2.4604823   0.92109289   461614 
  172000   0.80340433   -2.4588705   -2.4588705   -1.5397253  0.038469401   -2.4588705   0.91914517   461614 
  173000   0.80387505   -2.4597255   -2.4597255   -1.5400418  0.030104763   -2.4597255   0.91968371   461614 
  174000   0.80485261   -2.4617144   -2.4617144   -1.5409123  0.036640704   -2.4617144   0.92080209   461614 
  175000   0.80461719     -2.46023     -2.46023   -1.5396973  0.038955589     -2.46023   0.92053276   461614 
  176000   0.80344896   -2.4593886   -2.4593886   -1.5401924  0.034598712   -2.4593886   0.91919623   461614 
  177000   0.80349598   -2.4604629   -2.4604629   -1.5412129  0.038687252   -2.4604629   0.91925002   461614 
  178000   0.80444794   -2.4611949   -2.4611949   -1.5408558  0.031687403   -2.4611949   0.92033913   461614 
  179000   0.80251409   -2.4596394   -2.4596394   -1.5415127   0.03379317   -2.4596394   0.91812669   461614 
  180000   0.80302421   -2.4603999   -2.4603999   -1.5416897  0.041962164   -2.4603999   0.91871029   461614 
  181000   0.80315171   -2.4603558   -2.4603558   -1.5414997  0.025711746   -2.4603558   0.91885616   461614 
  182000   0.80201573   -2.4590846   -2.4590846   -1.5415281  0.035333379   -2.4590846   0.91755653   461614 
  183000   0.80390404   -2.4611091   -2.4611091   -1.5413922  0.033774345   -2.4611091   0.91971687   461614 
  184000   0.80185395   -2.4598779   -2.4598779   -1.5425064  0.037225223   -2.4598779   0.91737144   461614 
  185000   0.80275342   -2.4601599   -2.4601599   -1.5417594  0.034531059   -2.4601599   0.91840049   461614 
  186000   0.80280726   -2.4597904   -2.4597904   -1.5413284  0.036011338   -2.4597904   0.91846209   461614 
  187000   0.80258835   -2.4602476   -2.4602476    -1.542036  0.039224778   -2.4602476   0.91821163   461614 
  188000   0.80424676   -2.4616637   -2.4616637   -1.5415548  0.031601499   -2.4616637   0.92010896   461614 
  189000   0.80404218   -2.4618445   -2.4618445   -1.5419696  0.036735428   -2.4618445   0.91987491   461614 
  190000   0.80392327   -2.4609934   -2.4609934   -1.5412545  0.035695789   -2.4609934   0.91973887   461614 
  191000   0.80317421   -2.4608485   -2.4608485   -1.5419666  0.038587263   -2.4608485   0.91888191   461614 
  192000    0.8038425   -2.4618912   -2.4618912   -1.5422448  0.036303642   -2.4618912   0.91964646   461614 
  193000   0.80297494   -2.4610665   -2.4610665   -1.5424126  0.035509288   -2.4610665   0.91865393   461614 
  194000   0.80481167   -2.4639728   -2.4639728   -1.5432176  0.038046665   -2.4639728   0.92075526   461614 
  195000    0.8037197   -2.4616038   -2.4616038   -1.5420978  0.037673537   -2.4616038   0.91950598   461614 
  196000   0.80360113   -2.4615369   -2.4615369   -1.5421665  0.044552943   -2.4615369   0.91937033   461614 
  197000   0.80288292   -2.4609674   -2.4609674   -1.5424188  0.036843522   -2.4609674   0.91854865   461614 
  198000   0.80424901   -2.4628714   -2.4628714   -1.5427599  0.038690762   -2.4628714   0.92011153   461614 
  199000   0.80433816   -2.4631472   -2.4631472   -1.5429336  0.039211812   -2.4631472   0.92021353   461614 
  200000   0.80289926   -2.4620244   -2.4620244   -1.5434571  0.041940252   -2.4620244   0.91856734   461614 
  201000   0.80488419   -2.4642184   -2.4642184   -1.5433802  0.033832539   -2.4642184   0.92083822   461614 
  202000   0.80290995   -2.4624873   -2.4624873   -1.5439077  0.037456577   -2.4624873   0.91857957   461614 
  203000   0.80438531   -2.4632225   -2.4632225    -1.542955  0.040863007   -2.4632225   0.92026747   461614 
  204000    0.8050721   -2.4633749   -2.4633749   -1.5423217  0.036270953   -2.4633749   0.92105321   461614 
  205000   0.80441871   -2.4627075   -2.4627075   -1.5424018  0.035650979   -2.4627075   0.92030569   461614 
  206000   0.80351915   -2.4601756   -2.4601756    -1.540899  0.036080791   -2.4601756   0.91927653   461614 
  207000   0.80444403   -2.4612947   -2.4612947     -1.54096  0.035540791   -2.4612947   0.92033466   461614 
  208000   0.80437949   -2.4614895   -2.4614895   -1.5412287  0.039555684   -2.4614895   0.92026081   461614 
  209000   0.80340757    -2.460734    -2.460734   -1.5415851   0.03553703    -2.460734   0.91914888   461614 
  210000   0.80454188   -2.4607938   -2.4607938   -1.5403472  0.037273879   -2.4607938    0.9204466   461614 
  211000   0.80384623    -2.460832    -2.460832   -1.5411812  0.036119156    -2.460832   0.91965073   461614 
  212000   0.80333007    -2.460338    -2.460338   -1.5412778  0.034964293    -2.460338   0.91906021   461614 
  213000   0.80370664   -2.4603007   -2.4603007   -1.5408097  0.036768607   -2.4603007   0.91949104   461614 
  214000   0.80374975   -2.4600069   -2.4600069   -1.5404665  0.034621188   -2.4600069   0.91954036   461614 
  215000   0.80307069   -2.4584633   -2.4584633   -1.5396998  0.036507546   -2.4584633   0.91876347   461614 
  216000    0.8047416   -2.4614553   -2.4614553   -1.5407802  0.033912127   -2.4614553    0.9206751   461614 
  217000   0.80330964   -2.4600075   -2.4600075   -1.5409707  0.031617493   -2.4600075   0.91903684   461614 
  218000   0.80255379   -2.4595739   -2.4595739   -1.5414018  0.030829582   -2.4595739    0.9181721   461614 
  219000   0.80261291   -2.4593605   -2.4593605   -1.5411207  0.030439374   -2.4593605   0.91823974   461614 
  220000   0.80458319   -2.4614605   -2.4614605   -1.5409666  0.035361683   -2.4614605   0.92049387   461614 
  221000   0.80244039   -2.4593366   -2.4593366   -1.5412942  0.035555669   -2.4593366   0.91804236   461614 
  222000   0.80485757   -2.4615663   -2.4615663   -1.5407585  0.033615759   -2.4615663   0.92080777   461614 
  223000    0.8015948   -2.4577029   -2.4577029   -1.5406279  0.036876101   -2.4577029   0.91707496   461614 
  224000   0.80379562   -2.4592396   -2.4592396   -1.5396468  0.036163143   -2.4592396   0.91959284   461614 
  225000   0.80298106   -2.4582624   -2.4582624   -1.5396015   0.03368708   -2.4582624   0.91866093   461614 
  226000   0.80254858   -2.4580944   -2.4580944   -1.5399282  0.036009705   -2.4580944   0.91816614   461614 
  227000   0.80433532   -2.4601363   -2.4601363    -1.539926  0.035494681   -2.4601363   0.92021028   461614 
  228000   0.80502774   -2.4611066   -2.4611066   -1.5401041  0.028829661   -2.4611066   0.92100245   461614 
  229000   0.80508143   -2.4604434   -2.4604434   -1.5393795  0.042067978   -2.4604434   0.92106388   461614 
  230000    0.8043615   -2.4594521   -2.4594521   -1.5392118  0.038137375   -2.4594521   0.92024023   461614 
  231000   0.80502803   -2.4600126   -2.4600126   -1.5390098  0.039897697   -2.4600126   0.92100279   461614 
  232000   0.80534656   -2.4599944   -2.4599944   -1.5386272  0.037255763   -2.4599944    0.9213672   461614 
  233000   0.80469339   -2.4596867   -2.4596867   -1.5390668  0.037236584   -2.4596867   0.92061994   461614 
  234000   0.80532557   -2.4600924   -2.4600924   -1.5387492  0.036358895   -2.4600924   0.92134319   461614 
  235000   0.80569594   -2.4610224   -2.4610224   -1.5392555  0.031598242   -2.4610224   0.92176692   461614 
  236000    0.8046225   -2.4608315   -2.4608315   -1.5402926  0.033499585   -2.4608315   0.92053884   461614 
  237000     0.804301   -2.4600124   -2.4600124   -1.5398414  0.038692186   -2.4600124   0.92017102   461614 
  238000   0.80388691   -2.4606412   -2.4606412   -1.5409439  0.034237128   -2.4606412   0.91969728   461614 
  239000   0.80558104   -2.4616173   -2.4616173   -1.5399818  0.029775758   -2.4616173   0.92163547   461614 
  240000   0.80500453   -2.4612956   -2.4612956   -1.5403197  0.036442671   -2.4612956   0.92097591   461614 
  241000   0.80427906   -2.4603483   -2.4603483   -1.5402024  0.039095822   -2.4603483   0.92014592   461614 
  242000   0.80416993   -2.4603626   -2.4603626   -1.5403415   0.03579919   -2.4603626   0.92002107   461614 
  243000   0.80502549   -2.4614091   -2.4614091   -1.5404092  0.042310178   -2.4614091   0.92099989   461614 
  244000   0.80525888   -2.4611974   -2.4611974   -1.5399305  0.037287141   -2.4611974    0.9212669   461614 
  245000   0.80396358    -2.460323    -2.460323    -1.540538  0.039592573    -2.460323   0.91978498   461614 
  246000   0.80483352   -2.4617165   -2.4617165   -1.5409363  0.031865109   -2.4617165   0.92078026   461614 
  247000   0.80441523   -2.4608997   -2.4608997   -1.5405979  0.036315741   -2.4608997   0.92030171   461614 
  248000    0.8034602    -2.459873    -2.459873   -1.5406639  0.040601177    -2.459873   0.91920909   461614 
  249000   0.80479206   -2.4616812   -2.4616812   -1.5409484  0.035580289   -2.4616812   0.92073283   461614 
  250000   0.80387423   -2.4599531   -2.4599531   -1.5402703  0.034132521   -2.4599531   0.91968277   461614 
  251000   0.80326563   -2.4593143   -2.4593143   -1.5403278  0.037203282   -2.4593143   0.91898649   461614 
  252000   0.80375102   -2.4592138   -2.4592138    -1.539672  0.035204835   -2.4592138   0.91954181   461614 
  253000   0.80377478   -2.4604852   -2.4604852   -1.5409162  0.030584311   -2.4604852   0.91956899   461614 
  254000   0.80291483   -2.4590103   -2.4590103   -1.5404252  0.030389947   -2.4590103   0.91858515   461614 
  255000   0.80333483   -2.4592833   -2.4592833   -1.5402176  0.035713698   -2.4592833   0.91906566   461614 
  256000   0.80431858   -2.4596036   -2.4596036   -1.5394125  0.038287113   -2.4596036   0.92019113   461614 
  257000   0.80316754   -2.4586757   -2.4586757   -1.5398014  0.031841241   -2.4586757   0.91887427   461614 
  258000   0.80330076   -2.4589008   -2.4589008   -1.5398742  0.035451431   -2.4589008   0.91902668   461614 
  259000   0.80306765   -2.4579045   -2.4579045   -1.5391445  0.028144862   -2.4579045   0.91875999   461614 
  260000   0.80358201    -2.457777    -2.457777   -1.5384285  0.037236212    -2.457777   0.91934845   461614 
  261000   0.80418759   -2.4592352   -2.4592352   -1.5391939  0.036634696   -2.4592352   0.92004127   461614 
  262000   0.80318999    -2.458634    -2.458634    -1.539734  0.038823214    -2.458634   0.91889995   461614 
  263000   0.80362777   -2.4587024   -2.4587024   -1.5393016  0.031115459   -2.4587024    0.9194008   461614 
  264000   0.80522612   -2.4588781   -2.4588781   -1.5376486  0.034654708   -2.4588781   0.92122942   461614 
  265000   0.80421617   -2.4578812   -2.4578812   -1.5378072  0.042331032   -2.4578812   0.92007397   461614 
  266000   0.80411328   -2.4588957   -2.4588957   -1.5389395  0.040889893   -2.4588957   0.91995626   461614 
  267000    0.8051462   -2.4592988   -2.4592988   -1.5381609   0.03909646   -2.4592988   0.92113798   461614 
  268000   0.80498585   -2.4587395   -2.4587395   -1.5377849    0.0362288   -2.4587395   0.92095453   461614 
  269000   0.80490324   -2.4596499   -2.4596499   -1.5387899  0.035012153   -2.4596499   0.92086002   461614 
  270000   0.80325695   -2.4582386   -2.4582386   -1.5392621  0.034443003   -2.4582386   0.91897656   461614 
  271000   0.80317808   -2.4578281   -2.4578281   -1.5389418  0.033279916   -2.4578281   0.91888633   461614 
  272000   0.80452526   -2.4595819   -2.4595819   -1.5391543  0.032942549   -2.4595819   0.92042758   461614 
  273000     0.802671    -2.458513    -2.458513   -1.5402068  0.031845467    -2.458513    0.9183062   461614 
  274000   0.80434724    -2.460298    -2.460298   -1.5400741  0.033705534    -2.460298   0.92022393   461614 
  275000   0.80436227   -2.4595599   -2.4595599   -1.5393188  0.033971508   -2.4595599   0.92024111   461614 
  276000   0.80436101   -2.4588246   -2.4588246   -1.5385849  0.038516869   -2.4588246   0.92023967   461614 
  277000   0.80404851   -2.4595544   -2.4595544   -1.5396723  0.040535445   -2.4595544   0.91988215   461614 
  278000    0.8033644   -2.4583824   -2.4583824   -1.5392829  0.037155895   -2.4583824   0.91909949   461614 
  279000   0.80526179    -2.460758    -2.460758   -1.5394878  0.038369726    -2.460758   0.92127022   461614 
  280000   0.80311787   -2.4588695   -2.4588695   -1.5400521  0.042180695   -2.4588695   0.91881744   461614 
  281000   0.80506908    -2.461149    -2.461149   -1.5400993  0.032438287    -2.461149   0.92104975   461614 
  282000   0.80194871   -2.4577977   -2.4577977   -1.5403178  0.032106097   -2.4577977   0.91747986   461614 
  283000   0.80235436   -2.4583393   -2.4583393   -1.5403954  0.035187138   -2.4583393   0.91794394   461614 
  284000   0.80343922   -2.4599554   -2.4599554   -1.5407703  0.035157963   -2.4599554   0.91918509   461614 
  285000   0.80473036   -2.4603829   -2.4603829   -1.5397207  0.029891621   -2.4603829   0.92066223   461614 
  286000    0.8060054   -2.4617355   -2.4617355   -1.5396146  0.041585732   -2.4617355   0.92212096   461614 
  287000   0.80486608   -2.4616084   -2.4616084   -1.5407909  0.029931056   -2.4616084   0.92081751   461614 
  288000   0.80392029   -2.4597024   -2.4597024   -1.5399669  0.033801974   -2.4597024   0.91973546   461614 
  289000   0.80525306     -2.46053     -2.46053   -1.5392697  0.038051997     -2.46053   0.92126024   461614 
  290000   0.80451349   -2.4601785   -2.4601785   -1.5397644  0.041181976   -2.4601785   0.92041412   461614 
  291000   0.80442711   -2.4605235   -2.4605235   -1.5402082  0.033192974   -2.4605235    0.9203153   461614 
  292000   0.80358847   -2.4595768   -2.4595768    -1.540221  0.034185638   -2.4595768   0.91935584   461614 
  293000   0.80454839   -2.4608024   -2.4608024   -1.5403483  0.037189512   -2.4608024   0.92045405   461614 
  294000   0.80330089     -2.45818     -2.45818   -1.5391532  0.036980382     -2.45818   0.91902683   461614 
  295000   0.80519985   -2.4603493   -2.4603493   -1.5391499  0.029142495   -2.4603493   0.92119936   461614 
  296000    0.8043187   -2.4594525   -2.4594525   -1.5392612   0.03285207   -2.4594525   0.92019127   461614 
  297000   0.80438841    -2.459328    -2.459328    -1.539057  0.033480886    -2.459328   0.92027102   461614 
  298000   0.80389242   -2.4593837   -2.4593837   -1.5396801  0.033796807   -2.4593837   0.91970357   461614 
  299000   0.80406943   -2.4598029   -2.4598029   -1.5398968  0.034976036   -2.4598029   0.91990609   461614 
  300000   0.80427516   -2.4598377   -2.4598377   -1.5396963  0.030720857   -2.4598377   0.92014146   461614 
  301000    0.8048679   -2.4610248   -2.4610248   -1.5402053  0.032083145   -2.4610248   0.92081959   461614 
  302000   0.80394768   -2.4596881   -2.4596881   -1.5399213  0.034920287   -2.4596881    0.9197668   461614 
  303000   0.80415527   -2.4599693   -2.4599693    -1.539965  0.033959349   -2.4599693    0.9200043   461614 
  304000   0.80391953    -2.458527    -2.458527   -1.5387924  0.035486579    -2.458527   0.91973459   461614 
  305000   0.80414397   -2.4604917   -2.4604917   -1.5405003  0.030261043   -2.4604917   0.91999136   461614 
  306000   0.80414272   -2.4606006   -2.4606006   -1.5406106  0.034584148   -2.4606006   0.91998994   461614 
  307000   0.80267465   -2.4583351   -2.4583351   -1.5400248  0.038101182   -2.4583351   0.91831038   461614 
  308000   0.80471194   -2.4595589   -2.4595589   -1.5389178  0.039200964   -2.4595589   0.92064116   461614 
  309000   0.80438639   -2.4596079   -2.4596079   -1.5393392    0.0434876   -2.4596079   0.92026871   461614 
  310000   0.80425087   -2.4595328   -2.4595328   -1.5394191  0.032215881   -2.4595328   0.92011366   461614 
  311000   0.80298574   -2.4580126   -2.4580126   -1.5393463  0.039123565   -2.4580126   0.91866627   461614 
  312000   0.80439394   -2.4595161   -2.4595161   -1.5392387  0.031058219   -2.4595161   0.92027735   461614 
  313000   0.80396883   -2.4582121   -2.4582121   -1.5384211  0.035812898   -2.4582121   0.91979099   461614 
  314000   0.80338519   -2.4572804   -2.4572804   -1.5381571  0.036391883   -2.4572804   0.91912327   461614 
  315000   0.80412754   -2.4587379   -2.4587379   -1.5387654  0.032373065   -2.4587379   0.91997257   461614 
  316000   0.80499673   -2.4599299   -2.4599299   -1.5389629  0.038080471   -2.4599299   0.92096697   461614 
  317000   0.80430845   -2.4591944   -2.4591944   -1.5390148  0.036064668   -2.4591944   0.92017954   461614 
  318000   0.80420746   -2.4587831   -2.4587831   -1.5387191  0.035919523   -2.4587831     0.920064   461614 
  319000   0.80524086    -2.459053    -2.459053   -1.5378067   0.03667744    -2.459053   0.92124628   461614 
  320000   0.80660039   -2.4606126   -2.4606126   -1.5378109  0.034480257   -2.4606126   0.92280167   461614 
  321000   0.80564126   -2.4603574   -2.4603574    -1.538653  0.040844973   -2.4603574   0.92170436   461614 
  322000   0.80645877   -2.4611975   -2.4611975   -1.5385579  0.033814111   -2.4611975   0.92263964   461614 
  323000   0.80489474   -2.4590055   -2.4590055   -1.5381552  0.040880795   -2.4590055    0.9208503   461614 
  324000   0.80538701    -2.461148    -2.461148   -1.5397345  0.037910624    -2.461148   0.92141349   461614 
  325000   0.80521622   -2.4603337   -2.4603337   -1.5391156  0.045491797   -2.4603337   0.92121809   461614 
  326000   0.80542498   -2.4610504   -2.4610504   -1.5395935  0.038190773   -2.4610504   0.92145692   461614 
  327000   0.80489272   -2.4603395   -2.4603395   -1.5394915  0.038626709   -2.4603395   0.92084798   461614 
  328000   0.80394466   -2.4595265   -2.4595265   -1.5397631  0.035621292   -2.4595265   0.91976334   461614 
  329000   0.80392158    -2.459241    -2.459241    -1.539504  0.035081143    -2.459241   0.91973694   461614 
  330000   0.80432785   -2.4590164   -2.4590164   -1.5388146  0.033334412   -2.4590164   0.92020174   461614 
  331000   0.80467409   -2.4584366   -2.4584366   -1.5378387  0.033734707   -2.4584366   0.92059786   461614 
  332000   0.80531891    -2.458124    -2.458124   -1.5367885  0.032812051    -2.458124   0.92133557   461614 
  333000   0.80454475   -2.4571662   -2.4571662   -1.5367163  0.036360481   -2.4571662   0.92044989   461614 
  334000   0.80486248   -2.4569692   -2.4569692   -1.5361558   0.03427517   -2.4569692   0.92081339   461614 
  335000   0.80474785   -2.4581538   -2.4581538   -1.5374716  0.033266895   -2.4581538   0.92068224   461614 
  336000   0.80446196   -2.4579978   -2.4579978   -1.5376427  0.035193997   -2.4579978   0.92035516   461614 
  337000   0.80375706   -2.4577664   -2.4577664   -1.5382177  0.033057544   -2.4577664   0.91954872   461614 
  338000   0.80333959   -2.4567185   -2.4567185   -1.5376474  0.025572382   -2.4567185    0.9190711   461614 
  339000   0.80343155   -2.4568536   -2.4568536   -1.5376773  0.033123882   -2.4568536   0.91917631   461614 
  340000   0.80314282   -2.4574999   -2.4574999   -1.5386539  0.034038251   -2.4574999   0.91884599   461614 
  341000   0.80354613   -2.4576493   -2.4576493   -1.5383419  0.026019778   -2.4576493    0.9193074   461614 
  342000   0.80183822   -2.4554207   -2.4554207   -1.5380673  0.027337558   -2.4554207   0.91735344   461614 
  343000   0.80388666   -2.4579679   -2.4579679    -1.538271  0.031578298   -2.4579679   0.91969699   461614 
  344000   0.80330863   -2.4568301   -2.4568301   -1.5377944  0.036243848   -2.4568301   0.91903569   461614 
  345000   0.80357361    -2.456811    -2.456811   -1.5374722   0.02686194    -2.456811   0.91933884   461614 
  346000   0.80437607   -2.4580712   -2.4580712   -1.5378143  0.031475242   -2.4580712    0.9202569   461614 
  347000   0.80269626     -2.45739     -2.45739   -1.5390549  0.032885464     -2.45739   0.91833509   461614 
  348000   0.80305553   -2.4582067   -2.4582067   -1.5394605  0.037047531   -2.4582067   0.91874613   461614 
  349000   0.80189144   -2.4572272   -2.4572272   -1.5398129  0.035554434   -2.4572272   0.91741433   461614 
  350000   0.80209683   -2.4587718   -2.4587718   -1.5411225  0.026796713   -2.4587718   0.91764931   461614 
  351000   0.80363245   -2.4605886   -2.4605886   -1.5411825  0.036290837   -2.4605886   0.91940616   461614 
  352000   0.80454093   -2.4604542   -2.4604542   -1.5400087  0.037246372   -2.4604542   0.92044551   461614 
  353000   0.80262467   -2.4590774   -2.4590774   -1.5408242  0.034017005   -2.4590774    0.9182532   461614 
  354000   0.80396571   -2.4604686   -2.4604686   -1.5406811  0.035626681   -2.4604686   0.91978742   461614 
  355000   0.80448906   -2.4611274   -2.4611274   -1.5407412  0.043421412   -2.4611274   0.92038618   461614 
  356000   0.80408565   -2.4596251   -2.4596251   -1.5397005  0.041137497   -2.4596251   0.91992464   461614 
  357000   0.80585872   -2.4622408   -2.4622408   -1.5402876  0.038985821   -2.4622408   0.92195315   461614 
  358000   0.80454133    -2.461228    -2.461228    -1.540782   0.03817797    -2.461228   0.92044597   461614 
  359000   0.80342496   -2.4608627   -2.4608627   -1.5416939  0.035809307   -2.4608627   0.91916877   461614 
  360000   0.80482779   -2.4613865   -2.4613865   -1.5406127  0.036447994   -2.4613865    0.9207737   461614 
  361000   0.80619442   -2.4621709   -2.4621709   -1.5398337  0.040898941   -2.4621709   0.92233721   461614 
  362000    0.8055783   -2.4617028   -2.4617028   -1.5400705  0.041233082   -2.4617028   0.92163233   461614 
  363000   0.80421468   -2.4605213   -2.4605213    -1.540449  0.040447351   -2.4605213   0.92007227   461614 
  364000   0.80526613   -2.4618034   -2.4618034   -1.5405282  0.037944475   -2.4618034   0.92127518   461614 
  365000   0.80468055   -2.4605596   -2.4605596   -1.5399544   0.03577225   -2.4605596   0.92060525   461614 
  366000   0.80553902   -2.4616946   -2.4616946   -1.5401072  0.032916181   -2.4616946    0.9215874   461614 
  367000   0.80485112   -2.4609731   -2.4609731   -1.5401727  0.038165837   -2.4609731   0.92080039   461614 
  368000   0.80511816    -2.461588    -2.461588   -1.5404821  0.037426465    -2.461588    0.9211059   461614 
  369000   0.80622723   -2.4621184   -2.4621184   -1.5397437  0.032234848   -2.4621184   0.92237474   461614 
  370000   0.80372165   -2.4603327   -2.4603327   -1.5408245  0.034239447   -2.4603327   0.91950821   461614 
  371000   0.80373662   -2.4608925   -2.4608925   -1.5413672  0.035736461   -2.4608925   0.91952533   461614 
  372000   0.80430235    -2.460278    -2.460278   -1.5401054  0.038361906    -2.460278   0.92017257   461614 
  373000   0.80524707   -2.4599678   -2.4599678   -1.5387144  0.033704227   -2.4599678   0.92125338   461614 
  374000   0.80522779   -2.4581995   -2.4581995   -1.5369682  0.038295438   -2.4581995   0.92123133   461614 
  375000   0.80562667   -2.4589568   -2.4589568   -1.5372691  0.033277412   -2.4589568   0.92168767   461614 
  376000   0.80621267   -2.4603088   -2.4603088   -1.5379507  0.032001352   -2.4603088   0.92235809   461614 
  377000    0.8045518   -2.4580878   -2.4580878   -1.5376299  0.032915842   -2.4580878   0.92045795   461614 
  378000   0.80522535   -2.4585983   -2.4585983   -1.5373698  0.028029759   -2.4585983   0.92122854   461614 
  379000   0.80407694   -2.4577547   -2.4577547     -1.53784  0.031105047   -2.4577547   0.91991468   461614 
  380000    0.8023877   -2.4569472   -2.4569472   -1.5389651  0.032142804   -2.4569472   0.91798208   461614 
  381000   0.80130991   -2.4547746   -2.4547746   -1.5380256  0.029656948   -2.4547746   0.91674902   461614 
  382000   0.80355131   -2.4579073   -2.4579073    -1.538594  0.029919229   -2.4579073   0.91931333   461614 
  383000   0.80284977   -2.4576397   -2.4576397    -1.539129  0.033495294   -2.4576397   0.91851073   461614 
  384000   0.80213481   -2.4561466   -2.4561466   -1.5384538  0.034249471   -2.4561466   0.91769276   461614 
  385000   0.80235389   -2.4561955   -2.4561955   -1.5382521  0.037238586   -2.4561955    0.9179434   461614 
  386000   0.80501291   -2.4591202   -2.4591202   -1.5381347  0.035294599   -2.4591202   0.92098548   461614 
  387000   0.80579838   -2.4582791   -2.4582791    -1.536395  0.037779353   -2.4582791   0.92188412   461614 
  388000   0.80534269    -2.457593    -2.457593   -1.5362303  0.034024086    -2.457593   0.92136277   461614 
  389000   0.80530395   -2.4568796   -2.4568796   -1.5355611  0.032174078   -2.4568796   0.92131845   461614 
  390000   0.80515324   -2.4577867   -2.4577867   -1.5366406  0.031259276   -2.4577867   0.92114603   461614 
  391000   0.80391601    -2.456664    -2.456664   -1.5369334  0.039792746    -2.456664   0.91973056   461614 
  392000   0.80456671    -2.456361    -2.456361    -1.535886  0.039266929    -2.456361   0.92047501   461614 
  393000   0.80378736   -2.4559836   -2.4559836   -1.5364002  0.035029493   -2.4559836   0.91958339   461614 
  394000   0.80501946   -2.4581614   -2.4581614   -1.5371684  0.036015053   -2.4581614   0.92099298   461614 
  395000   0.80473035   -2.4586182   -2.4586182    -1.537956  0.038404336   -2.4586182   0.92066222   461614 
  396000   0.80670286   -2.4601063   -2.4601063   -1.5371874  0.033487916   -2.4601063    0.9229189   461614 
  397000   0.80597985   -2.4594609   -2.4594609   -1.5373691  0.032375018   -2.4594609   0.92209173   461614 
  398000   0.80578478   -2.4596375   -2.4596375   -1.5377689  0.037344168   -2.4596375   0.92186856   461614 
  399000   0.80462097   -2.4588723   -2.4588723   -1.5383352  0.037658363   -2.4588723   0.92053709   461614 
  400000   0.80473441   -2.4581818   -2.4581818   -1.5375149  0.036659635   -2.4581818   0.92066687   461614 
  401000   0.80457346   -2.4583557   -2.4583557    -1.537873  0.033622722   -2.4583557   0.92048273   461614 
  402000   0.80435979   -2.4578128   -2.4578128   -1.5375745  0.035041116   -2.4578128   0.92023828   461614 
  403000   0.80418557   -2.4574254   -2.4574254   -1.5373864  0.036337541   -2.4574254   0.92003896   461614 
  404000   0.80573745   -2.4596405   -2.4596405   -1.5378261  0.037145286   -2.4596405    0.9218144   461614 
  405000   0.80535279   -2.4590567   -2.4590567   -1.5376824  0.037613597   -2.4590567   0.92137433   461614 
  406000   0.80514463   -2.4591531   -2.4591531   -1.5380169  0.034537346   -2.4591531   0.92113618   461614 
  407000   0.80502243   -2.4595567   -2.4595567   -1.5385603   0.03643511   -2.4595567   0.92099638   461614 
  408000   0.80299383   -2.4565023   -2.4565023   -1.5378268  0.033694936   -2.4565023   0.91867554   461614 
  409000   0.80426486   -2.4579675   -2.4579675   -1.5378378  0.034122546   -2.4579675   0.92012967   461614 
  410000    0.8041047   -2.4572637   -2.4572637   -1.5373172  0.033097684   -2.4572637   0.91994644   461614 
  411000   0.80463319   -2.4578402   -2.4578402   -1.5372891  0.033082341   -2.4578402   0.92055106   461614 
  412000   0.80510097   -2.4589401   -2.4589401   -1.5378538  0.034104242   -2.4589401   0.92108623   461614 
  413000    0.8042191   -2.4575377   -2.4575377   -1.5374604   0.03522834   -2.4575377   0.92007731   461614 
  414000   0.80433799   -2.4577441   -2.4577441   -1.5375307  0.037069544   -2.4577441   0.92021333   461614 
  415000    0.8050332   -2.4594548   -2.4594548   -1.5384461  0.035337008   -2.4594548    0.9210087   461614 
  416000   0.80472408   -2.4587239   -2.4587239   -1.5380689  0.033219019   -2.4587239   0.92065505   461614 
  417000   0.80666779   -2.4604983   -2.4604983   -1.5376196  0.031502569   -2.4604983   0.92287877   461614 
  418000   0.80552211   -2.4598441   -2.4598441   -1.5382761  0.028932917   -2.4598441   0.92156805   461614 
  419000   0.80567769   -2.4595056   -2.4595056   -1.5377595  0.038058202   -2.4595056   0.92174604   461614 
  420000   0.80466584    -2.458735    -2.458735   -1.5381466  0.037215705    -2.458735   0.92058842   461614 
  421000    0.8049008   -2.4594879   -2.4594879   -1.5386307  0.034403347   -2.4594879   0.92085723   461614 
  422000   0.80452888   -2.4588014   -2.4588014   -1.5383697  0.032581926   -2.4588014   0.92043173   461614 
  423000   0.80349037   -2.4571095   -2.4571095   -1.5378659  0.035258396   -2.4571095   0.91924361   461614 
  424000   0.80521748   -2.4593713   -2.4593713   -1.5381518  0.033194238   -2.4593713   0.92121953   461614 
  425000   0.80535152   -2.4598978   -2.4598978   -1.5385249  0.040227811   -2.4598978   0.92137288   461614 
  426000   0.80476506   -2.4598777   -2.4598777   -1.5391757   0.03250233   -2.4598777   0.92070193   461614 
  427000   0.80465249   -2.4597759   -2.4597759   -1.5392028  0.037991136   -2.4597759   0.92057315   461614 
  428000   0.80727808   -2.4628577   -2.4628577   -1.5392807  0.030280203   -2.4628577   0.92357698   461614 
  429000   0.80398881   -2.4582241   -2.4582241   -1.5384102  0.039277623   -2.4582241   0.91981385   461614 
  430000   0.80525578   -2.4594487   -2.4594487   -1.5381854  0.038341034   -2.4594487   0.92126335   461614 
  431000   0.80554274   -2.4600777   -2.4600777    -1.538486  0.034026031   -2.4600777   0.92159165   461614 
  432000   0.80478555   -2.4593191   -2.4593191   -1.5385937  0.037615816   -2.4593191   0.92072537   461614 
  433000   0.80392649   -2.4593168   -2.4593168   -1.5395743  0.038280453   -2.4593168   0.91974255   461614 
  434000   0.80651272   -2.4618575   -2.4618575   -1.5391561  0.039888388   -2.4618575   0.92270137   461614 
  435000   0.80522706   -2.4598071   -2.4598071   -1.5385766  0.040138434   -2.4598071   0.92123049   461614 
  436000    0.8058615   -2.4608716   -2.4608716   -1.5389152  0.031285599   -2.4608716   0.92195633   461614 
  437000   0.80541397   -2.4606344   -2.4606344   -1.5391901  0.036237418   -2.4606344   0.92144433   461614 
  438000   0.80510445   -2.4607766   -2.4607766   -1.5396864  0.035368797   -2.4607766   0.92109022   461614 
  439000   0.80650595    -2.462111    -2.462111   -1.5394174  0.031623364    -2.462111   0.92269362   461614 
  440000    0.8041293   -2.4597344   -2.4597344   -1.5397598  0.038052881   -2.4597344   0.91997458   461614 
  441000   0.80418076    -2.459965    -2.459965   -1.5399316  0.036754556    -2.459965   0.92003346   461614 
  442000    0.8046797   -2.4600027   -2.4600027   -1.5393984  0.039212521   -2.4600027   0.92060427   461614 
  443000   0.80375309   -2.4584858   -2.4584858   -1.5389416  0.036671127   -2.4584858   0.91954417   461614 
  444000   0.80533368   -2.4605612   -2.4605612   -1.5392087  0.032217973   -2.4605612   0.92135247   461614 
  445000   0.80412781   -2.4595633   -2.4595633   -1.5395905  0.030702902   -2.4595633   0.91997288   461614 
  446000   0.80314475   -2.4593438   -2.4593438   -1.5404956   0.03119027   -2.4593438   0.91884819   461614 
  447000   0.80482366    -2.460969    -2.460969      -1.5402  0.031785322    -2.460969   0.92076898   461614 
  448000   0.80254366   -2.4588562   -2.4588562   -1.5406957  0.030600671   -2.4588562   0.91816051   461614 
  449000   0.80699427   -2.4629467   -2.4629467   -1.5396944  0.035219338   -2.4629467   0.92325229   461614 
  450000   0.80567875   -2.4616169   -2.4616169   -1.5398697  0.037588292   -2.4616169   0.92174725   461614 
  451000   0.80567256   -2.4609733   -2.4609733   -1.5392332  0.037896659   -2.4609733   0.92174017   461614 
  452000    0.8054433    -2.460556    -2.460556   -1.5390782  0.034137603    -2.460556   0.92147788   461614 
  453000   0.80621295   -2.4612118   -2.4612118   -1.5388534  0.033363456   -2.4612118   0.92235841   461614 
  454000   0.80513095   -2.4597743   -2.4597743   -1.5386538   0.03974278   -2.4597743   0.92112054   461614 
  455000   0.80571694   -2.4600426   -2.4600426   -1.5382517   0.03814027   -2.4600426   0.92179094   461614 
  456000   0.80533648   -2.4602152   -2.4602152   -1.5388595  0.035863525   -2.4602152   0.92135568   461614 
  457000   0.80481573   -2.4599327   -2.4599327   -1.5391728  0.041192481   -2.4599327    0.9207599   461614 
  458000   0.80617117    -2.461425    -2.461425   -1.5391144  0.037679256    -2.461425   0.92231061   461614 
  459000   0.80441128   -2.4598893   -2.4598893   -1.5395921  0.038191355   -2.4598893   0.92029719   461614 
  460000   0.80509895     -2.46051     -2.46051   -1.5394261  0.035016947     -2.46051   0.92108392   461614 
  461000   0.80644235   -2.4606957   -2.4606957   -1.5380749  0.032169561   -2.4606957   0.92262086   461614 
  462000   0.80455106   -2.4594955   -2.4594955   -1.5390384  0.030114356   -2.4594955    0.9204571   461614 
  463000   0.80344849   -2.4579374   -2.4579374   -1.5387417  0.035322142   -2.4579374    0.9191957   461614 
  464000   0.80552352   -2.4595133   -2.4595133   -1.5379436  0.033349903   -2.4595133   0.92156966   461614 
  465000   0.80454275   -2.4600942   -2.4600942   -1.5396466  0.034380818   -2.4600942    0.9204476   461614 
  466000   0.80338859   -2.4592164   -2.4592164   -1.5400892  0.032214538   -2.4592164   0.91912717   461614 
  467000   0.80433469   -2.4609152   -2.4609152   -1.5407056    0.0313758   -2.4609152   0.92020956   461614 
  468000   0.80385838   -2.4592346   -2.4592346     -1.53957  0.037152236   -2.4592346   0.91966463   461614 
  469000   0.80569778   -2.4620523   -2.4620523   -1.5402833  0.032007384   -2.4620523   0.92176902   461614 
  470000   0.80311546   -2.4592205   -2.4592205   -1.5404058  0.035582985   -2.4592205   0.91881469   461614 
  471000   0.80407861   -2.4602724   -2.4602724   -1.5403558  0.031451826   -2.4602724   0.91991659   461614 
  472000   0.80599516   -2.4611466   -2.4611466   -1.5390374  0.035890875   -2.4611466   0.92210924   461614 
  473000   0.80463305    -2.459657    -2.459657   -1.5391061   0.03788369    -2.459657   0.92055091   461614 
  474000    0.8041296   -2.4591103   -2.4591103   -1.5391354  0.031716763   -2.4591103   0.91997493   461614 
  475000   0.80445266   -2.4591057   -2.4591057   -1.5387612  0.034292134   -2.4591057   0.92034452   461614 
  476000   0.80549293    -2.460584    -2.460584   -1.5390493  0.039083471    -2.460584   0.92153466   461614 
  477000   0.80461777   -2.4587662   -2.4587662   -1.5382328  0.039742988   -2.4587662   0.92053342   461614 
  478000   0.80577361   -2.4602617   -2.4602617    -1.538406  0.031918104   -2.4602617   0.92185577   461614 
  479000    0.8059142   -2.4611898   -2.4611898   -1.5391732  0.030156869   -2.4611898   0.92201663   461614 
  480000   0.80471417   -2.4598023   -2.4598023   -1.5391586  0.038462175   -2.4598023   0.92064371   461614 
  481000   0.80538838   -2.4603766   -2.4603766   -1.5389616  0.032019305   -2.4603766   0.92141505   461614 
  482000   0.80690426   -2.4610293   -2.4610293     -1.53788  0.033570823   -2.4610293   0.92314931   461614 
  483000   0.80495035   -2.4593356   -2.4593356   -1.5384217  0.042375523   -2.4593356   0.92091391   461614 
  484000    0.8060142   -2.4608624   -2.4608624   -1.5387314  0.036328779   -2.4608624   0.92213103   461614 
  485000   0.80531557   -2.4607193   -2.4607193   -1.5393876   0.03208443   -2.4607193   0.92133175   461614 
  486000   0.80559042   -2.4601558   -2.4601558   -1.5385096  0.035510448   -2.4601558    0.9216462   461614 
  487000   0.80619283   -2.4603421   -2.4603421   -1.5380067  0.036683928   -2.4603421    0.9223354   461614 
  488000   0.80471354   -2.4586568   -2.4586568   -1.5380138  0.035775138   -2.4586568   0.92064299   461614 
  489000    0.8062006   -2.4595314   -2.4595314   -1.5371871  0.034120357   -2.4595314   0.92234428   461614 
  490000    0.8071726   -2.4607414   -2.4607414   -1.5372851  0.037765644   -2.4607414   0.92345631   461614 
  491000   0.80682629   -2.4603427   -2.4603427   -1.5372826  0.038843961   -2.4603427   0.92306011   461614 
  492000   0.80555454   -2.4597158   -2.4597158   -1.5381107  0.038401544   -2.4597158   0.92160515   461614 
  493000   0.80531818   -2.4588052   -2.4588052   -1.5374705   0.03246246   -2.4588052   0.92133473   461614 
  494000    0.8040781   -2.4585673   -2.4585673   -1.5386513  0.034577658   -2.4585673     0.919916   461614 
  495000   0.80609611   -2.4596223   -2.4596223   -1.5373976  0.028667715   -2.4596223   0.92222474   461614 
  496000   0.80441615   -2.4585482   -2.4585482   -1.5382454   0.03468504   -2.4585482   0.92030276   461614 
  497000   0.80585913   -2.4595973   -2.4595973   -1.5376437  0.039499569   -2.4595973   0.92195362   461614 
  498000   0.80581718   -2.4594789   -2.4594789   -1.5375733  0.040759317   -2.4594789   0.92190563   461614 
  499000   0.80663335   -2.4598794   -2.4598794     -1.53704  0.038318965   -2.4598794   0.92283937   461614 
  500000   0.80580494   -2.4596701   -2.4596701   -1.5377785  0.038256563   -2.4596701   0.92189162   461614 
  501000   0.80713459   -2.4607784   -2.4607784   -1.5373655  0.040965295   -2.4607784   0.92341282   461614 
  502000   0.80568462   -2.4596608   -2.4596608   -1.5379069  0.037352572   -2.4596608   0.92175396   461614 
  503000   0.80503355   -2.4595394   -2.4595394   -1.5385303  0.039833425   -2.4595394    0.9210091   461614 
  504000   0.80500802    -2.459566    -2.459566   -1.5385861  0.036041062    -2.459566   0.92097989   461614 
  505000   0.80505234   -2.4594576   -2.4594576    -1.538427  0.038979261   -2.4594576    0.9210306   461614 
  506000   0.80411781    -2.459015    -2.459015   -1.5390535  0.038403367    -2.459015   0.91996144   461614 
  507000   0.80407323   -2.4599038   -2.4599038   -1.5399934  0.036408012   -2.4599038   0.91991044   461614 
  508000   0.80302121   -2.4589914   -2.4589914   -1.5402845  0.034132654   -2.4589914   0.91870686   461614 
  509000   0.80500217   -2.4604621   -2.4604621   -1.5394889    0.0384447   -2.4604621    0.9209732   461614 
  510000   0.80479198   -2.4606959   -2.4606959   -1.5399632  0.031851756   -2.4606959   0.92073273   461614 
  511000   0.80540763   -2.4611902   -2.4611902   -1.5397531  0.035285253   -2.4611902   0.92143707   461614 
  512000   0.80627632   -2.4624633   -2.4624633   -1.5400324  0.035577617   -2.4624633    0.9224309   461614 
  513000   0.80562332    -2.461841    -2.461841   -1.5401572  0.031917837    -2.461841   0.92168383   461614 
  514000    0.8037825   -2.4597796   -2.4597796   -1.5402018  0.035824941   -2.4597796   0.91957782   461614 
  515000   0.80520745   -2.4598132   -2.4598132   -1.5386052  0.038468874   -2.4598132   0.92120806   461614 
  516000    0.8060211   -2.4601338   -2.4601338   -1.5379949  0.040500413   -2.4601338   0.92213893   461614 
  517000   0.80588926   -2.4599145   -2.4599145   -1.5379264  0.034705146   -2.4599145   0.92198809   461614 
  518000   0.80692904   -2.4608577   -2.4608577     -1.53768  0.035920648   -2.4608577   0.92317767   461614 
  519000   0.80537262   -2.4594464   -2.4594464   -1.5380493  0.038922898   -2.4594464   0.92139702   461614 
  520000   0.80375297   -2.4586807   -2.4586807   -1.5391366  0.035149817   -2.4586807   0.91954404   461614 
  521000   0.80570257   -2.4594118   -2.4594118   -1.5376373  0.032596639   -2.4594118    0.9217745   461614 
  522000   0.80456667   -2.4600157   -2.4600157   -1.5395408  0.031091037   -2.4600157   0.92047496   461614 
  523000   0.80545129   -2.4600275   -2.4600275   -1.5385405    0.0313146   -2.4600275   0.92148702   461614 
  524000   0.80462111   -2.4589965   -2.4589965   -1.5384593  0.033677389   -2.4589965   0.92053725   461614 
  525000   0.80505254    -2.459929    -2.459929   -1.5388982  0.030844926    -2.459929   0.92103082   461614 
  526000   0.80455796   -2.4597101   -2.4597101   -1.5392451  0.033848095   -2.4597101   0.92046499   461614 
  527000   0.80462362   -2.4602451   -2.4602451    -1.539705  0.033487583   -2.4602451   0.92054011   461614 
  528000   0.80359184   -2.4593898   -2.4593898   -1.5400301  0.029651075   -2.4593898   0.91935969   461614 
  529000   0.80424944   -2.4597256   -2.4597256   -1.5396136  0.034107895   -2.4597256   0.92011204   461614 
  530000   0.80344407   -2.4584912   -2.4584912   -1.5393005  0.034505591   -2.4584912   0.91919063   461614 
  531000   0.80570937    -2.460567    -2.460567   -1.5387847  0.038003322    -2.460567   0.92178228   461614 
  532000   0.80528151   -2.4609159   -2.4609159   -1.5396231  0.031907179   -2.4609159   0.92129278   461614 
  533000   0.80456276   -2.4601705   -2.4601705      -1.5397  0.035314911   -2.4601705   0.92047049   461614 
  534000   0.80523318   -2.4609368   -2.4609368   -1.5396993  0.026746161   -2.4609368   0.92123749   461614 
  535000   0.80560185   -2.4613071   -2.4613071   -1.5396478  0.033748649   -2.4613071   0.92165928   461614 
  536000   0.80537505   -2.4606354   -2.4606354   -1.5392356  0.035314948   -2.4606354    0.9213998   461614 
  537000   0.80527153   -2.4604238   -2.4604238   -1.5391424  0.035144202   -2.4604238   0.92128137   461614 
  538000   0.80385182   -2.4594711   -2.4594711    -1.539814  0.034671987   -2.4594711   0.91965713   461614 
  539000   0.80670466   -2.4626043   -2.4626043   -1.5396833  0.038685088   -2.4626043   0.92292095   461614 
  540000   0.80507964   -2.4609709   -2.4609709   -1.5399091  0.037138389   -2.4609709   0.92106183   461614 
  541000   0.80590786   -2.4622626   -2.4622626   -1.5402532   0.03649905   -2.4622626   0.92200937   461614 
  542000   0.80518029   -2.4612013   -2.4612013   -1.5400243  0.039242597   -2.4612013   0.92117698   461614 
  543000   0.80575327   -2.4624325   -2.4624325   -1.5405999   0.03739401   -2.4624325   0.92183251   461614 
  544000   0.80602037   -2.4625852   -2.4625852   -1.5404472   0.03459927   -2.4625852   0.92213809   461614 
  545000   0.80479216   -2.4622475   -2.4622475   -1.5415145   0.03915965   -2.4622475   0.92073293   461614 
  546000   0.80520607   -2.4613524   -2.4613524   -1.5401459  0.038766189   -2.4613524   0.92120647   461614 
  547000   0.80538289   -2.4618538   -2.4618538    -1.540445   0.03698061   -2.4618538   0.92140877   461614 
  548000   0.80599536   -2.4624149   -2.4624149   -1.5403054   0.03439435   -2.4624149   0.92210947   461614 
  549000   0.80487214   -2.4624228   -2.4624228   -1.5415984   0.03168663   -2.4624228   0.92082444   461614 
  550000   0.80400862   -2.4611731   -2.4611731   -1.5413366  0.038591369   -2.4611731   0.91983652   461614 
  551000     0.806524   -2.4640594   -2.4640594   -1.5413451  0.029362692   -2.4640594   0.92271427   461614 
  552000   0.80494197   -2.4623719   -2.4623719   -1.5414675  0.032823803   -2.4623719   0.92090433   461614 
  553000   0.80322621   -2.4604011   -2.4604011   -1.5414597  0.034935202   -2.4604011   0.91894139   461614 
  554000   0.80384094   -2.4606096   -2.4606096    -1.540965  0.035844708   -2.4606096   0.91964468   461614 
  555000   0.80399468   -2.4598984   -2.4598984   -1.5400779  0.035229167   -2.4598984   0.91982057   461614 
  556000   0.80553039     -2.46142     -2.46142   -1.5398424  0.033989991     -2.46142   0.92157752   461614 
  557000   0.80487712    -2.460719    -2.460719   -1.5398889  0.034932721    -2.460719   0.92083014   461614 
  558000   0.80406312   -2.4605836   -2.4605836   -1.5406848  0.037209619   -2.4605836   0.91989887   461614 
  559000   0.80440164   -2.4607553   -2.4607553   -1.5404692  0.033889802   -2.4607553   0.92028616   461614 
  560000    0.8051399   -2.4616141   -2.4616141   -1.5404833  0.035168834   -2.4616141   0.92113077   461614 
  561000   0.80465272   -2.4604266   -2.4604266   -1.5398532  0.039370617   -2.4604266   0.92057341   461614 
  562000   0.80547512   -2.4620366   -2.4620366   -1.5405224  0.028178019   -2.4620366   0.92151429   461614 
  563000   0.80316152    -2.460001    -2.460001   -1.5411337  0.031976822    -2.460001   0.91886738   461614 
  564000   0.80327411   -2.4599507   -2.4599507   -1.5409545  0.034396194   -2.4599507   0.91899619   461614 
  565000   0.80479232   -2.4617901   -2.4617901    -1.541057  0.034904917   -2.4617901   0.92073312   461614 
  566000   0.80613998   -2.4640197   -2.4640197   -1.5417448  0.037908005   -2.4640197   0.92227493   461614 
  567000   0.80576341   -2.4628275   -2.4628275   -1.5409834   0.03364384   -2.4628275    0.9218441   461614 
  568000   0.80670706   -2.4644396   -2.4644396   -1.5415159  0.033833977   -2.4644396    0.9229237   461614 
  569000   0.80526096   -2.4636648   -2.4636648   -1.5423955   0.03800388   -2.4636648   0.92126927   461614 
  570000   0.80429706   -2.4613306   -2.4613306   -1.5411641  0.036500869   -2.4613306   0.92016652   461614 
  571000   0.80448863   -2.4612896   -2.4612896   -1.5409039  0.032081205   -2.4612896   0.92038568   461614 
  572000   0.80393771   -2.4605489   -2.4605489   -1.5407935  0.036382402   -2.4605489    0.9197554   461614 
  573000    0.8041127   -2.4608827   -2.4608827   -1.5409271  0.030803079   -2.4608827   0.91995559   461614 
  574000   0.80523841   -2.4617389   -2.4617389   -1.5404954  0.035330351   -2.4617389   0.92124348   461614 
  575000   0.80446629   -2.4613609   -2.4613609   -1.5410008  0.035995246   -2.4613609   0.92036012   461614 
  576000    0.8038357   -2.4608034   -2.4608034   -1.5411647  0.039440589   -2.4608034   0.91963868   461614 
  577000   0.80436081   -2.4610517   -2.4610517   -1.5408122  0.036946226   -2.4610517   0.92023944   461614 
  578000   0.80419335   -2.4606445   -2.4606445   -1.5405966  0.032366264   -2.4606445   0.92004786   461614 
  579000   0.80437766   -2.4597849   -2.4597849   -1.5395261  0.034503589   -2.4597849   0.92025872   461614 
  580000   0.80583288   -2.4615084   -2.4615084   -1.5395848   0.03518696   -2.4615084   0.92192359   461614 
  581000   0.80535009    -2.460982    -2.460982   -1.5396108  0.032554245    -2.460982   0.92137124   461614 
  582000   0.80565727   -2.4617685   -2.4617685   -1.5400458  0.038587955   -2.4617685   0.92172267   461614 
  583000   0.80545064   -2.4608247   -2.4608247   -1.5393384  0.033302737   -2.4608247   0.92148628   461614 
  584000   0.80402329   -2.4601103   -2.4601103    -1.540257  0.037008368   -2.4601103    0.9198533   461614 
  585000   0.80442631    -2.460694    -2.460694   -1.5403796  0.036200125    -2.460694   0.92031438   461614 
  586000    0.8050967   -2.4614524   -2.4614524   -1.5403711  0.043170151   -2.4614524   0.92108134   461614 
  587000   0.80531265    -2.461387    -2.461387   -1.5400586  0.032269665    -2.461387   0.92132841   461614 
  588000   0.80435977   -2.4604063   -2.4604063   -1.5401681  0.031830648   -2.4604063   0.92023826   461614 
  589000   0.80604186   -2.4611671   -2.4611671   -1.5390044  0.033437347   -2.4611671   0.92216267   461614 
  590000   0.80401434   -2.4599193   -2.4599193   -1.5400762  0.036660246   -2.4599193   0.91984306   461614 
  591000   0.80554487   -2.4611763   -2.4611763   -1.5395822  0.040904498   -2.4611763   0.92159408   461614 
  592000   0.80593814   -2.4625057   -2.4625057   -1.5404617   0.03178646   -2.4625057   0.92204401   461614 
  593000   0.80543115   -2.4617207   -2.4617207   -1.5402567  0.029733002   -2.4617207   0.92146398   461614 
  594000   0.80444013    -2.460332    -2.460332   -1.5400018  0.032619103    -2.460332   0.92033019   461614 
  595000   0.80609065   -2.4624131   -2.4624131   -1.5401947  0.034669647   -2.4624131   0.92221849   461614 
  596000   0.80424242    -2.460091    -2.460091    -1.539987  0.032965783    -2.460091     0.920104   461614 
  597000   0.80400491   -2.4602861   -2.4602861   -1.5404539  0.031963387   -2.4602861   0.91983227   461614 
  598000   0.80484434   -2.4605293   -2.4605293   -1.5397367  0.037532934   -2.4605293   0.92079264   461614 
  599000   0.80629093   -2.4615313   -2.4615313   -1.5390837  0.038476728   -2.4615313   0.92244762   461614 
  600000   0.80525818   -2.4608307   -2.4608307   -1.5395646  0.039010624   -2.4608307   0.92126609   461614 
  601000   0.80581446   -2.4614468   -2.4614468   -1.5395443  0.033186514   -2.4614468   0.92190251   461614 
  602000   0.80485724   -2.4603501   -2.4603501   -1.5395427  0.031541122   -2.4603501   0.92080739   461614 
  603000   0.80511642   -2.4602344   -2.4602344   -1.5391305  0.037778535   -2.4602344   0.92110391   461614 
  604000    0.8058526   -2.4612774   -2.4612774   -1.5393313  0.030969718   -2.4612774   0.92194615   461614 
  605000   0.80567238   -2.4601662   -2.4601662   -1.5384262  0.036600566   -2.4601662   0.92173997   461614 
  606000   0.80535937   -2.4612413   -2.4612413   -1.5398595  0.032370519   -2.4612413   0.92138186   461614 
  607000   0.80580436   -2.4609267   -2.4609267   -1.5390358  0.037263045   -2.4609267   0.92189095   461614 
  608000   0.80586435   -2.4613728   -2.4613728   -1.5394132  0.038785819   -2.4613728   0.92195959   461614 
  609000   0.80476076   -2.4604532   -2.4604532   -1.5397562  0.032860076   -2.4604532   0.92069702   461614 
  610000   0.80537169   -2.4605714   -2.4605714   -1.5391754  0.031554645   -2.4605714   0.92139595   461614 
  611000   0.80487039   -2.4603582   -2.4603582   -1.5395357   0.03997132   -2.4603582   0.92082244   461614 
  612000   0.80412155   -2.4598622   -2.4598622   -1.5398965  0.033848319   -2.4598622   0.91996571   461614 
  613000   0.80369424   -2.4585281   -2.4585281   -1.5390513  0.038756765   -2.4585281   0.91947684   461614 
  614000   0.80642018   -2.4608077   -2.4608077   -1.5382122  0.035848683   -2.4608077   0.92259549   461614 
  615000   0.80486176   -2.4599594   -2.4599594   -1.5391469  0.038062646   -2.4599594   0.92081257   461614 
  616000   0.80542578    -2.460964    -2.460964   -1.5395062  0.032773152    -2.460964   0.92145783   461614 
  617000   0.80402797   -2.4588294   -2.4588294   -1.5389708  0.037672759   -2.4588294   0.91985866   461614 
  618000   0.80478776   -2.4605066   -2.4605066   -1.5397787  0.029535898   -2.4605066   0.92072791   461614 
  619000    0.8058392   -2.4612616   -2.4612616   -1.5393308  0.037593783   -2.4612616   0.92193082   461614 
  620000    0.8052792   -2.4608112   -2.4608112   -1.5395211  0.033529281   -2.4608112   0.92129014   461614 
  621000   0.80412042   -2.4600129   -2.4600129   -1.5400485  0.038238027   -2.4600129   0.91996442   461614 
  622000   0.80529251   -2.4611732   -2.4611732   -1.5398679  0.029141237   -2.4611732   0.92130536   461614 
  623000   0.80624236   -2.4629519   -2.4629519   -1.5405598  0.028843847   -2.4629519   0.92239206   461614 
  624000   0.80605384   -2.4631168   -2.4631168   -1.5409405  0.034536632   -2.4631168   0.92217638   461614 
  625000   0.80396215   -2.4610662   -2.4610662   -1.5412829  0.036792248   -2.4610662   0.91978335   461614 
  626000   0.80325041   -2.4603507   -2.4603507   -1.5413816  0.034839522   -2.4603507   0.91896908   461614 
  627000   0.80447165   -2.4615062   -2.4615062     -1.54114  0.030647662   -2.4615062   0.92036625   461614 
  628000   0.80492185   -2.4624054   -2.4624054   -1.5415241  0.033651898   -2.4624054   0.92088131   461614 
  629000   0.80557666   -2.4621539   -2.4621539   -1.5405235  0.034473013   -2.4621539   0.92163045   461614 
  630000   0.80484112   -2.4621646   -2.4621646   -1.5413757  0.037633389   -2.4621646   0.92078895   461614 
  631000   0.80596564   -2.4635417   -2.4635417   -1.5414662  0.038067919   -2.4635417   0.92207547   461614 
  632000   0.80313601   -2.4610372   -2.4610372    -1.542199  0.037153452   -2.4610372    0.9188382   461614 
  633000   0.80409654    -2.462589    -2.462589   -1.5426519  0.034127042    -2.462589   0.91993711   461614 
  634000   0.80421702    -2.463715    -2.463715   -1.5436401    0.0334458    -2.463715   0.92007494   461614 
  635000   0.80471438   -2.4640593   -2.4640593   -1.5434154  0.040643856   -2.4640593   0.92064395   461614 
  636000   0.80515336   -2.4655144   -2.4655144   -1.5443682  0.035358383   -2.4655144   0.92114617   461614 
  637000   0.80441459   -2.4649578   -2.4649578   -1.5446568  0.041488948   -2.4649578   0.92030097   461614 
  638000    0.8037283    -2.463364    -2.463364   -1.5438482  0.034277656    -2.463364   0.91951582   461614 
  639000   0.80384146   -2.4629556   -2.4629556   -1.5433103  0.034616368   -2.4629556   0.91964528   461614 
  640000   0.80479519   -2.4650521   -2.4650521   -1.5443157  0.039045497   -2.4650521   0.92073641   461614 
  641000   0.80562952   -2.4652128   -2.4652128   -1.5435219  0.035818125   -2.4652128   0.92169092   461614 
  642000    0.8044334   -2.4641755   -2.4641755    -1.543853  0.034249349   -2.4641755    0.9203225   461614 
  643000   0.80515623   -2.4650335   -2.4650335    -1.543884  0.032816976   -2.4650335   0.92114946   461614 
  644000   0.80515541   -2.4658022   -2.4658022   -1.5446537  0.038931425   -2.4658022   0.92114852   461614 
[...]
 4205000   0.80326822   -2.4911928   -2.4911928   -1.5722033  0.035144942   -2.4911928   0.91898946   461614 
 4206000   0.80265171   -2.4912253   -2.4912253   -1.5729412  0.035255794   -2.4912253   0.91828412   461614 
 4207000   0.80124665   -2.4897714   -2.4897714   -1.5730947  0.035780214   -2.4897714   0.91667666   461614 
 4208000   0.80287765   -2.4911204   -2.4911204   -1.5725777  0.032383087   -2.4911204   0.91854262   461614 
 4209000   0.80269273   -2.4899519   -2.4899519   -1.5716208  0.034860689   -2.4899519   0.91833105   461614 
 4210000   0.80238522   -2.4890176   -2.4890176   -1.5710383  0.036460464   -2.4890176   0.91797925   461614 
 4211000   0.80424114   -2.4909635   -2.4909635   -1.5708609  0.030200902   -2.4909635   0.92010254   461614 
 4212000    0.8037402   -2.4916672   -2.4916672   -1.5721378  0.040259432   -2.4916672   0.91952943   461614 
 4213000   0.80425871   -2.4911547   -2.4911547   -1.5710321  0.040945644   -2.4911547   0.92012263   461614 
 4214000   0.80318677   -2.4904088   -2.4904088   -1.5715125  0.035341337   -2.4904088   0.91889627   461614 
 4215000    0.8034304   -2.4906897   -2.4906897   -1.5715147  0.038630362   -2.4906897     0.919175   461614 
 4216000   0.80340513   -2.4904996   -2.4904996   -1.5713535  0.039897958   -2.4904996   0.91914609   461614 
 4217000   0.80282015   -2.4908217   -2.4908217   -1.5723448  0.043016788   -2.4908217   0.91847683   461614 
 4218000   0.80429909   -2.4934072   -2.4934072   -1.5732383  0.037071463   -2.4934072   0.92016883   461614 
 4219000   0.80405802   -2.4933905   -2.4933905   -1.5734975  0.035758827   -2.4933905   0.91989304   461614 
 4220000   0.80349607   -2.4929867   -2.4929867   -1.5737366  0.032697591   -2.4929867   0.91925012   461614 
 4221000   0.80227325   -2.4921157   -2.4921157   -1.5742646  0.032273918   -2.4921157   0.91785114   461614 
 4222000   0.80294136   -2.4933721   -2.4933721   -1.5747566  0.036198571   -2.4933721    0.9186155   461614 
 4223000   0.80334345   -2.4943124   -2.4943124   -1.5752369  0.033225729   -2.4943124   0.91907552   461614 
 4224000    0.8047817   -2.4963055   -2.4963055   -1.5755845  0.035663619   -2.4963055   0.92072097   461614 
 4225000   0.80328486   -2.4947952   -2.4947952   -1.5757867  0.036697954   -2.4947952   0.91900849   461614 
 4226000   0.80357041   -2.4941656   -2.4941656   -1.5748304  0.037247136   -2.4941656   0.91933518   461614 
 4227000   0.80348441   -2.4939693   -2.4939693   -1.5747325  0.034537191   -2.4939693   0.91923679   461614 
 4228000   0.80173708   -2.4925265   -2.4925265   -1.5752887  0.036845482   -2.4925265   0.91723774   461614 
 4229000   0.80164172   -2.4928594   -2.4928594   -1.5757308  0.028762376   -2.4928594   0.91712863   461614 
 4230000   0.80231639   -2.4929215   -2.4929215    -1.575021  0.034045888   -2.4929215    0.9179005   461614 
 4231000   0.80271592   -2.4925738   -2.4925738   -1.5742162   0.03176654   -2.4925738   0.91835758   461614 
 4232000    0.8032806   -2.4932919   -2.4932919   -1.5742883  0.032457556   -2.4932919   0.91900362   461614 
 4233000   0.80363144    -2.492941    -2.492941    -1.573536  0.038188511    -2.492941     0.919405   461614 
 4234000   0.80449349   -2.4939233   -2.4939233   -1.5735321  0.038004267   -2.4939233   0.92039124   461614 
 4235000   0.80288913   -2.4917633   -2.4917633   -1.5732075  0.033993484   -2.4917633   0.91855575   461614 
 4236000   0.80331009   -2.4919223   -2.4919223   -1.5728849  0.039863811   -2.4919223   0.91903736   461614 
 4237000   0.80380065   -2.4922737   -2.4922737   -1.5726751  0.031873686   -2.4922737   0.91959859   461614 
 4238000   0.80260573   -2.4904087   -2.4904087   -1.5721772  0.034673388   -2.4904087   0.91823152   461614 
 4239000   0.80353269   -2.4922713   -2.4922713   -1.5729793  0.039258961   -2.4922713   0.91929202   461614 
 4240000   0.80352404   -2.4922657   -2.4922657   -1.5729836  0.034532912   -2.4922657   0.91928213   461614 
 4241000   0.80315966   -2.4917678   -2.4917678   -1.5729025  0.032418656   -2.4917678   0.91886526   461614 
 4242000   0.80241264   -2.4907889   -2.4907889   -1.5727783  0.035709027   -2.4907889   0.91801062   461614 
 4243000   0.80243279   -2.4906441   -2.4906441   -1.5726104  0.037498714   -2.4906441   0.91803367   461614 
 4244000   0.80461503   -2.4929231   -2.4929231   -1.5723928   0.03224323   -2.4929231   0.92053028   461614 
 4245000   0.80219897   -2.4909158   -2.4909158   -1.5731497  0.031942908   -2.4909158   0.91776616   461614 
 4246000   0.80238114   -2.4908679   -2.4908679   -1.5728933  0.034486432   -2.4908679   0.91797457   461614 
 4247000   0.80346264   -2.4923909   -2.4923909    -1.573179    0.0330756   -2.4923909   0.91921189   461614 
 4248000   0.80332094   -2.4919633   -2.4919633   -1.5729135  0.031914412   -2.4919633   0.91904977   461614 
 4249000   0.80351232   -2.4926484   -2.4926484   -1.5733797  0.034188685   -2.4926484   0.91926872   461614 
 4250000   0.80085508   -2.4897714   -2.4897714   -1.5735427  0.040658336   -2.4897714   0.91622867   461614 
 4251000    0.8022455   -2.4916377   -2.4916377   -1.5738183  0.029016024   -2.4916377    0.9178194   461614 
 4252000   0.80123429   -2.4900448   -2.4900448   -1.5733823  0.032999526   -2.4900448   0.91666251   461614 
 4253000   0.80259838   -2.4915265   -2.4915265   -1.5733034  0.033277332   -2.4915265   0.91822312   461614 
 4254000   0.80308168   -2.4922762   -2.4922762   -1.5735002  0.037529535   -2.4922762   0.91877604   461614 
 4255000   0.80247986   -2.4920483   -2.4920483   -1.5739608  0.035799829   -2.4920483   0.91808752   461614 
 4256000   0.80234938   -2.4914629   -2.4914629   -1.5735247  0.044304223   -2.4914629   0.91793825   461614 
 4257000   0.80250684   -2.4927009   -2.4927009   -1.5745825  0.035185947   -2.4927009   0.91811839   461614 
 4258000   0.80338391   -2.4931091   -2.4931091   -1.5739873  0.029822239   -2.4931091   0.91912181   461614 
 4259000   0.80236366    -2.492437    -2.492437   -1.5744824  0.040434507    -2.492437   0.91795458   461614 
 4260000   0.80311956   -2.4936764   -2.4936764    -1.574857  0.034641649   -2.4936764   0.91881938   461614 
 4261000   0.80361391   -2.4949127   -2.4949127   -1.5755278  0.037434699   -2.4949127   0.91938494   461614 
 4262000   0.80308681   -2.4940301   -2.4940301   -1.5752482  0.033079659   -2.4940301   0.91878191   461614 
 4263000   0.80386007   -2.4951504   -2.4951504   -1.5754839  0.035998745   -2.4951504   0.91966657   461614 
 4264000   0.80426664    -2.495891    -2.495891   -1.5757592  0.040295116    -2.495891   0.92013171   461614 
 4265000   0.80426261   -2.4954315   -2.4954315   -1.5753044   0.03517079   -2.4954315    0.9201271   461614 
 4266000   0.80455138   -2.4959321   -2.4959321   -1.5754747  0.033369529   -2.4959321   0.92045747   461614 
 4267000   0.80359398   -2.4944572   -2.4944572   -1.5750951  0.036438551   -2.4944572   0.91936215   461614 
 4268000   0.80361408   -2.4950191   -2.4950191    -1.575634  0.034861363   -2.4950191   0.91938514   461614 
 4269000   0.80201736    -2.493245    -2.493245   -1.5756866   0.03063308    -2.493245   0.91755839   461614 
 4270000   0.80177419   -2.4942832   -2.4942832    -1.577003  0.033854609   -2.4942832   0.91728019   461614 
 4271000   0.80366932   -2.4957805   -2.4957805   -1.5763322  0.029308383   -2.4957805   0.91944834   461614 
 4272000    0.8027105    -2.493757    -2.493757   -1.5754056  0.034420476    -2.493757   0.91835139   461614 
 4273000   0.80244984   -2.4942308   -2.4942308   -1.5761776  0.032447056   -2.4942308   0.91805318   461614 
 4274000   0.80228161   -2.4932176   -2.4932176   -1.5753569  0.036161979   -2.4932176   0.91786071   461614 
 4275000   0.80264612   -2.4940758   -2.4940758   -1.5757981  0.032504995   -2.4940758   0.91827774   461614 
 4276000   0.80330482   -2.4935093   -2.4935093    -1.574478  0.041028783   -2.4935093   0.91903132   461614 
 4277000   0.80461752   -2.4949041   -2.4949041   -1.5743709  0.034890423   -2.4949041   0.92053313   461614 
 4278000   0.80350104   -2.4935688   -2.4935688    -1.574313  0.035067568   -2.4935688   0.91925581   461614 
 4279000    0.8029797   -2.4931314   -2.4931314    -1.574472  0.032707802   -2.4931314   0.91865937   461614 
 4280000   0.80245537   -2.4932206   -2.4932206   -1.5751611  0.034766892   -2.4932206    0.9180595   461614 
 4281000   0.80168892   -2.4914957   -2.4914957   -1.5743131  0.037610724   -2.4914957   0.91718264   461614 
 4282000   0.80196444   -2.4924099   -2.4924099   -1.5749121  0.031584456   -2.4924099   0.91749785   461614 
 4283000   0.80400796   -2.4939308   -2.4939308    -1.574095  0.034021128   -2.4939308   0.91983576   461614 
 4284000   0.80386034   -2.4931338   -2.4931338   -1.5734669  0.035725534   -2.4931338   0.91966688   461614 
 4285000   0.80379737   -2.4930424   -2.4930424   -1.5734476  0.030972961   -2.4930424   0.91959484   461614 
 4286000   0.80371875   -2.4927056   -2.4927056   -1.5732007  0.031854732   -2.4927056   0.91950489   461614 
 4287000    0.8031408   -2.4918725   -2.4918725   -1.5730288  0.036497928   -2.4918725   0.91884367   461614 
 4288000   0.80250543   -2.4909171   -2.4909171   -1.5728003  0.032355781   -2.4909171   0.91811678   461614 
 4289000   0.80384766   -2.4920717   -2.4920717   -1.5724193  0.038582066   -2.4920717   0.91965237   461614 
 4290000   0.80359943   -2.4911515   -2.4911515   -1.5717831  0.030501595   -2.4911515   0.91936837   461614 
 4291000   0.80419703   -2.4909655   -2.4909655   -1.5709134  0.032084957   -2.4909655   0.92005207   461614 
 4292000   0.80345291   -2.4903008   -2.4903008      -1.5711  0.032915403   -2.4903008   0.91920075   461614 
 4293000   0.80427257   -2.4912457   -2.4912457   -1.5711072  0.030658331   -2.4912457    0.9201385   461614 
 4294000   0.80320509    -2.490023    -2.490023   -1.5711057    0.0360421    -2.490023   0.91891723   461614 
 4295000   0.80508329   -2.4918488   -2.4918488   -1.5707828  0.035090326   -2.4918488     0.921066   461614 
 4296000   0.80309678   -2.4895625   -2.4895625   -1.5707692  0.034926367   -2.4895625   0.91879332   461614 
 4297000   0.80362141   -2.4895813   -2.4895813   -1.5701877   0.02957144   -2.4895813   0.91939353   461614 
 4298000   0.80391012    -2.490646    -2.490646   -1.5709221  0.028836156    -2.490646   0.91972382   461614 
 4299000   0.80452832   -2.4906973   -2.4906973   -1.5702663  0.029595004   -2.4906973   0.92043109   461614 
 4300000   0.80286694   -2.4883583   -2.4883583   -1.5698279  0.037405005   -2.4883583   0.91853037   461614 
 4301000   0.80321443    -2.489658    -2.489658   -1.5707301  0.034453468    -2.489658   0.91892791   461614 
 4302000   0.80340213    -2.491048    -2.491048   -1.5719054   0.03285896    -2.491048   0.91914266   461614 
 4303000   0.80379341   -2.4899512   -2.4899512   -1.5703609  0.030216496   -2.4899512    0.9195903   461614 
 4304000   0.80436202   -2.4903021   -2.4903021   -1.5700613  0.034130796   -2.4903021   0.92024083   461614 
 4305000    0.8053539   -2.4909701   -2.4909701   -1.5695945  0.033187691   -2.4909701    0.9213756   461614 
 4306000   0.80471843   -2.4900962   -2.4900962   -1.5694476  0.036600208   -2.4900962   0.92064858   461614 
 4307000   0.80417933   -2.4894397   -2.4894397   -1.5694079  0.040677092   -2.4894397   0.92003182   461614 
 4308000   0.80472756   -2.4892799   -2.4892799   -1.5686209  0.034333442   -2.4892799   0.92065903   461614 
 4309000   0.80481893   -2.4900955   -2.4900955   -1.5693319  0.037265558   -2.4900955   0.92076357   461614 
 4310000   0.80624542   -2.4915913   -2.4915913   -1.5691958  0.032034303   -2.4915913   0.92239556   461614 
 4311000   0.80471027   -2.4905214   -2.4905214   -1.5698821   0.03878131   -2.4905214   0.92063925   461614 
 4312000   0.80592873   -2.4916154   -2.4916154   -1.5695822  0.040804602   -2.4916154   0.92203324   461614 
 4313000   0.80474395   -2.4917145   -2.4917145   -1.5710368  0.035755514   -2.4917145   0.92067779   461614 
 4314000   0.80361418   -2.4906974   -2.4906974   -1.5713122  0.036087957   -2.4906974   0.91938525   461614 
 4315000   0.80224343    -2.488855    -2.488855    -1.571038  0.033927633    -2.488855   0.91781703   461614 
 4316000   0.80302446   -2.4901587   -2.4901587   -1.5714481  0.035026406   -2.4901587   0.91871057   461614 
 4317000    0.8022107   -2.4892802   -2.4892802   -1.5715006     0.034969   -2.4892802   0.91777959   461614 
 4318000   0.80394869   -2.4908009   -2.4908009   -1.5710329  0.036344451   -2.4908009   0.91976795   461614 
 4319000   0.80404138   -2.4904143   -2.4904143   -1.5705404   0.03982332   -2.4904143   0.91987399   461614 
 4320000   0.80160344   -2.4889865   -2.4889865   -1.5719016  0.038699243   -2.4889865   0.91708484   461614 
 4321000    0.8023742   -2.4891964   -2.4891964   -1.5712298  0.036372964   -2.4891964   0.91796664   461614 
 4322000   0.80353603   -2.4913236   -2.4913236   -1.5720278  0.027600333   -2.4913236   0.91929585   461614 
 4323000    0.8015526   -2.4890569   -2.4890569   -1.5720302  0.031903798   -2.4890569   0.91702668   461614 
 4324000   0.80177948   -2.4905924   -2.4905924   -1.5733061  0.037130446   -2.4905924   0.91728624   461614 
 4325000   0.80316158   -2.4925692   -2.4925692   -1.5737018  0.030701843   -2.4925692   0.91886745   461614 
 4326000   0.80322181   -2.4911508   -2.4911508   -1.5722144  0.032210063   -2.4911508   0.91893636   461614 
 4327000   0.80301005   -2.4902499   -2.4902499   -1.5715558  0.037620656   -2.4902499   0.91869409   461614 
 4328000   0.80418313   -2.4915804   -2.4915804   -1.5715443  0.032345099   -2.4915804   0.92003617   461614 
 4329000   0.80423102   -2.4913317   -2.4913317   -1.5712408  0.037277752   -2.4913317   0.92009096   461614 
 4330000   0.80425187    -2.492193    -2.492193   -1.5720782  0.037032768    -2.492193   0.92011481   461614 
 4331000    0.8055005    -2.492756    -2.492756   -1.5712127  0.038364875    -2.492756   0.92154332   461614 
 4332000   0.80488704    -2.492054    -2.492054   -1.5712125  0.043153556    -2.492054   0.92084149   461614 
 4333000   0.80547471    -2.492862    -2.492862   -1.5713482  0.041090569    -2.492862   0.92151381   461614 
 4334000   0.80572382   -2.4929556   -2.4929556   -1.5711568  0.036344968   -2.4929556   0.92179881   461614 
 4335000   0.80524947   -2.4929775   -2.4929775   -1.5717214  0.034172669   -2.4929775   0.92125613   461614 
 4336000   0.80488988   -2.4924761   -2.4924761   -1.5716313  0.037975715   -2.4924761   0.92084474   461614 
 4337000   0.80412399   -2.4920006   -2.4920006   -1.5720321  0.037808247   -2.4920006   0.91996851   461614 
 4338000   0.80430467   -2.4923375   -2.4923375   -1.5721623   0.03861232   -2.4923375   0.92017522   461614 
 4339000   0.80413075   -2.4914003   -2.4914003   -1.5714241  0.030955957   -2.4914003   0.91997625   461614 
 4340000   0.80299202   -2.4915573   -2.4915573   -1.5728838  0.031426378   -2.4915573   0.91867346   461614 
 4341000   0.80368257   -2.4925819   -2.4925819   -1.5731184  0.032278537   -2.4925819    0.9194635   461614 
 4342000   0.80307019   -2.4911569   -2.4911569    -1.572394  0.032565408   -2.4911569   0.91876289   461614 
 4343000   0.80396531   -2.4916664   -2.4916664   -1.5718795   0.03557886   -2.4916664   0.91978697   461614 
 4344000   0.80317404   -2.4913319   -2.4913319   -1.5724502  0.031903966   -2.4913319    0.9188817   461614 
 4345000   0.80323428   -2.4915662   -2.4915662   -1.5726155  0.035027599   -2.4915662   0.91895063   461614 
 4346000   0.80489938   -2.4918703   -2.4918703   -1.5710147  0.035297012   -2.4918703    0.9208556   461614 
 4347000   0.80426994   -2.4903134   -2.4903134   -1.5701779   0.03779347   -2.4903134   0.92013548   461614 
 4348000   0.80306188   -2.4904674   -2.4904674    -1.571714  0.037279428   -2.4904674   0.91875339   461614 
 4349000   0.80426182   -2.4913041   -2.4913041   -1.5711779  0.032945277   -2.4913041    0.9201262   461614 
 4350000   0.80378333   -2.4906833   -2.4906833   -1.5711046  0.035576505   -2.4906833   0.91957878   461614 
 4351000    0.8047333   -2.4914097   -2.4914097   -1.5707441  0.035152131   -2.4914097   0.92066559   461614 
 4352000   0.80463547   -2.4908118   -2.4908118   -1.5702582  0.029472326   -2.4908118   0.92055367   461614 
 4353000   0.80438218   -2.4904555   -2.4904555   -1.5701916  0.035172514   -2.4904555    0.9202639   461614 
 4354000   0.80452273   -2.4904666   -2.4904666   -1.5700419  0.037889459   -2.4904666   0.92042469   461614 
 4355000   0.80487249   -2.4899884   -2.4899884   -1.5691636  0.041226704   -2.4899884   0.92082484   461614 
 4356000   0.80568872   -2.4919284   -2.4919284   -1.5701697  0.033887964   -2.4919284   0.92175866   461614 
 4357000   0.80381238   -2.4922964   -2.4922964   -1.5726844  0.034248685   -2.4922964   0.91961201   461614 
 4358000   0.80225283   -2.4902379   -2.4902379   -1.5724101  0.039333628   -2.4902379   0.91782779   461614 
 4359000    0.8021651    -2.490448    -2.490448   -1.5727206  0.028471803    -2.490448   0.91772742   461614 
 4360000   0.80144764   -2.4895404   -2.4895404   -1.5726338  0.032673717   -2.4895404    0.9169066   461614 
 4361000   0.80155544   -2.4903492   -2.4903492   -1.5733193  0.029766905   -2.4903492   0.91702992   461614 
 4362000   0.80166146   -2.4890169   -2.4890169   -1.5718657  0.033448217   -2.4890169   0.91715122   461614 
 4363000   0.80303454   -2.4903921   -2.4903921     -1.57167  0.030452364   -2.4903921   0.91872211   461614 
 4364000   0.80145072   -2.4891922   -2.4891922   -1.5722821  0.038842566   -2.4891922   0.91691012   461614 
 4365000   0.80273165   -2.4908532   -2.4908532   -1.5724776  0.032663919   -2.4908532   0.91837558   461614 
 4366000   0.80538965   -2.4923003   -2.4923003   -1.5708838  0.034464965   -2.4923003    0.9214165   461614 
 4367000   0.80331734   -2.4898517   -2.4898517   -1.5708061   0.03556966   -2.4898517   0.91904565   461614 
 4368000   0.80332728   -2.4905394   -2.4905394   -1.5714824  0.034837035   -2.4905394   0.91905703   461614 
 4369000   0.80314508   -2.4906978   -2.4906978   -1.5718493  0.036015542   -2.4906978   0.91884857   461614 
 4370000   0.80381983   -2.4914245   -2.4914245    -1.571804  0.040061019   -2.4914245   0.91962053   461614 
 4371000   0.80300911    -2.491209    -2.491209    -1.572516  0.039519155    -2.491209   0.91869302   461614 
 4372000   0.80419055   -2.4936193   -2.4936193   -1.5735747  0.038300046   -2.4936193   0.92004466   461614 
 4373000   0.80264018   -2.4917903   -2.4917903   -1.5735194  0.036332462   -2.4917903   0.91827094   461614 
 4374000    0.8034561    -2.493403    -2.493403   -1.5741986  0.038145133    -2.493403   0.91920441   461614 
 4375000   0.80397328   -2.4933142   -2.4933142   -1.5735181  0.035426123   -2.4933142   0.91979609   461614 
 4376000   0.80314293   -2.4926136   -2.4926136   -1.5737675  0.032967977   -2.4926136   0.91884611   461614 
 4377000   0.80433466   -2.4945644   -2.4945644   -1.5743549  0.036715006   -2.4945644   0.92020953   461614 
 4378000   0.80512803   -2.4953789   -2.4953789   -1.5742617  0.036543829   -2.4953789   0.92111719   461614 
 4379000   0.80528109   -2.4953376   -2.4953376   -1.5740453  0.042787001   -2.4953376    0.9212923   461614 
 4380000   0.80497184    -2.494896    -2.494896   -1.5739575  0.038719794    -2.494896    0.9209385   461614 
 4381000   0.80337445   -2.4931911   -2.4931911   -1.5740801  0.040303969   -2.4931911   0.91911099   461614 
 4382000   0.80385994    -2.493511    -2.493511   -1.5738446  0.037207501    -2.493511   0.91966642   461614 
 4383000   0.80214549   -2.4916974   -2.4916974   -1.5739924  0.036575582   -2.4916974   0.91770498   461614 
 4384000    0.8030075    -2.492903    -2.492903   -1.5742118  0.036762359    -2.492903   0.91869117   461614 
 4385000   0.80181981    -2.491167    -2.491167   -1.5738347  0.040474166    -2.491167   0.91733238   461614 
 4386000   0.80297259   -2.4930565   -2.4930565  