LAMMPS (3 Mar 2020)
  using 1 OpenMP thread(s) per MPI task
Created orthogonal box = (0 0 0) to (40 40 40)
  2 by 2 by 2 MPI processor grid
Lattice spacing in x,y,z = 1 1 1
Created 64000 atoms
  create_atoms CPU = 0.00448657 secs
64000 atoms in group solvent
WARNING: Replicating in a non-periodic dimension (src/replicate.cpp:72)
  orthogonal box = (0 0 0) to (80 80 80)
  2 by 2 by 2 MPI processor grid
  512000 atoms
  0 = max # of 1-2 neighbors
  0 = max # of 1-3 neighbors
  0 = max # of 1-4 neighbors
  1 = max # of special neighbors
  special bonds CPU = 0.0288306 secs
  replicate CPU = 0.116417 secs
  orthogonal box = (0 0 0) to (80 80 160)
  1 by 2 by 4 MPI processor grid
  0 = max # of 1-2 neighbors
  0 = max # of 1-3 neighbors
  0 = max # of 1-4 neighbors
  1 = max # of special neighbors
  special bonds CPU = 0.0169817 secs
  read_data CPU = 0.088685 secs
Neighbor list info ...
  update every 1 steps, delay 10 steps, check yes
  max neighbors/atom: 2000, page size: 100000
  master list distance cutoff = 4.8
  ghost atom cutoff = 4.8
  binsize = 2.4, bins = 34 34 67
  1 neighbor lists, perpetual/occasional/extra = 1 0 0
  (1) pair lj/cut, perpetual
      attributes: half, newton on
      pair build: half/bin/newton
      stencil: half/bin/3d/newton
      bin: standard
  rebalancing time: 0.0575419 seconds
  iteration count = 5
  initial/final max load/proc = 128000 70400
  initial/final imbalance factor = 2 1.1
  x cuts: 0 1
  y cuts: 0 0.5 1
  z cuts: 0 0.125 0.257812 0.375 1
WARNING: Ignoring 'compress yes' for molecular system (src/delete_atoms.cpp:125)
Deleted 12800 atoms, new total = 499200
dynamic group thermo defined
New timer settings: style=full  mode=nosync  timeout=off
Per MPI rank memory allocation (min/avg/max) = 93.32 | 116.1 | 133 Mbytes
Step Temp E_pair E_vdwl TotEng Press PotEng KinEng Volume 
       0    0.9999782   -4.1582862   -4.1582862   -2.6583219    8.3781089   -4.1582862    1.4999643      1024000 
    1000     1.525071   -5.4565518   -5.4565518   -3.1689498    4.1239476   -5.4565518    2.2876019      1024000 
    2000    1.5169816   -5.5246649   -5.5246649    -3.249197    2.6870054   -5.5246649    2.2754679      1024000 
    3000    1.5031472    -5.518993    -5.518993   -3.2642767    1.5059105    -5.518993    2.2547163      1024000 
    4000    1.4417319   -5.3935172   -5.3935172   -3.2309237   0.75714094   -5.3935172    2.1625935      1024000 
    5000    1.3559747   -5.2325846   -5.2325846   -3.1986266   0.38144068   -5.2325846     2.033958      1024000 
    6000    1.2852529   -5.1011559   -5.1011559   -3.1732805   0.24027433   -5.1011559    1.9278754      1024000 
    7000    1.2716228   -5.0580126   -5.0580126   -3.1505822   0.28758614   -5.0580126    1.9074303      1024000 
    8000    1.2838221   -5.0650234   -5.0650234   -3.1392941   0.36354168   -5.0650234    1.9257293      1024000 
    9000     1.289272   -5.0664385   -5.0664385   -3.1325344   0.38458616   -5.0664385    1.9339042      1024000 
   10000    1.3009888   -5.0747484   -5.0747484   -3.1232691   0.43387941   -5.0747484    1.9514793      1024000 
   11000    1.3190489   -5.0948759   -5.0948759   -3.1163065   0.50393889   -5.0948759    1.9785694      1024000 
   12000    1.3340817   -5.1097758   -5.1097758   -3.1086572   0.54836174   -5.1097758    2.0011186      1024000 
   13000    1.3366138   -5.1076669   -5.1076669   -3.1027501   0.56707734   -5.1076669    2.0049167      1024000 
   14000     1.332266   -5.0958487   -5.0958487   -3.0974538   0.52615413   -5.0958487    1.9983949      1024000 
   15000    1.3223028   -5.0769461   -5.0769461   -3.0934959    0.4728333   -5.0769461    1.9834502      1024000 
   16000     1.312539   -5.0569092   -5.0569092   -3.0881046   0.42109047   -5.0569092    1.9688046      1024000 
   17000    1.3112367   -5.0473023   -5.0473023   -3.0804513   0.40641718   -5.0473023    1.9668511      1024000 
   18000    1.3102724   -5.0428905   -5.0428905   -3.0774859   0.41377944   -5.0428905    1.9654047      1024000 
   19000    1.3163788   -5.0445757   -5.0445757   -3.0700114   0.43016283   -5.0445757    1.9745643      1024000 
   20000    1.3252717     -5.05476     -5.05476   -3.0668564   0.47436224     -5.05476    1.9879036      1024000 
   21000    1.3393073   -5.0722469   -5.0722469     -3.06329   0.85151473   -5.0722469    2.0089569      1024000 
   22000    1.3450418   -5.0793068   -5.0793068   -3.0617481    1.5865889   -5.0793068    2.0175587      1024000 
   23000    1.3533015   -5.0845106   -5.0845106   -3.0545623    2.2225805   -5.0845106    2.0299483      1024000 
   24000    1.3623001   -5.0910087   -5.0910087   -3.0475626    1.8414537   -5.0910087    2.0434461      1024000 
   25000    1.3516197   -5.0697467   -5.0697467   -3.0423212     1.260308   -5.0697467    2.0274254      1024000 
   26000    1.3156587   -5.0112804   -5.0112804   -3.0377964   0.83018382   -5.0112804     1.973484      1024000 
   27000    1.2669837   -4.9333741   -4.9333741   -3.0329024   0.58660028   -4.9333741    1.9004717      1024000 
   28000    1.2309695   -4.8749523   -4.8749523   -3.0285018    0.5348355   -4.8749523    1.8464505      1024000 
   29000    1.2185593   -4.8542813   -4.8542813   -3.0264461   0.81048214   -4.8542813    1.8278352      1024000 
   30000    1.2224142   -4.8547083   -4.8547083   -3.0210907   0.78855187   -4.8547083    1.8336176      1024000 
   31000    1.2117559   -4.8373764   -4.8373764   -3.0197462   0.77557852   -4.8373764    1.8176302      1024000 
   32000    1.2000352   -4.8127483   -4.8127483   -3.0126991    0.8345205   -4.8127483    1.8000492      1024000 
   33000    1.1487315   -4.7356118   -4.7356118    -3.012518   0.52124433   -4.7356118    1.7230938      1024000 
   34000    1.0834641   -4.6326232   -4.6326232   -3.0074303   0.19748048   -4.6326232    1.6251929      1024000 
   35000    1.0259242   -4.5397881   -4.5397881    -3.000905  0.028431735   -4.5397881    1.5388832      1024000 
   36000   0.98541749   -4.4778644   -4.4778644   -2.9997412 -0.036745511   -4.4778644    1.4781233      1024000 
   37000   0.97287936   -4.4543135   -4.4543135   -2.9949974 -0.029444044   -4.4543135    1.4593161      1024000 
   38000   0.97797398   -4.4604245   -4.4604245   -2.9934664   0.01777559   -4.4604245     1.466958      1024000 
   39000   0.98919565   -4.4724258   -4.4724258   -2.9886353  0.067006022   -4.4724258    1.4837905      1024000 
   40000   0.99877792   -4.4847416   -4.4847416   -2.9865777  0.098659786   -4.4847416    1.4981639      1024000 
   41000    1.0041283   -4.4902469   -4.4902469   -2.9840575   0.10662587   -4.4902469    1.5061894      1024000 
   42000     1.008186   -4.4937594   -4.4937594   -2.9814835   0.12197034   -4.4937594     1.512276      1024000 
   43000    1.0123646    -4.498519    -4.498519   -2.9799751   0.11625247    -4.498519    1.5185438      1024000 
   44000    1.0107356    -4.496591    -4.496591   -2.9804907   0.12069636    -4.496591    1.5161003      1024000 
   45000    1.0115952   -4.4978171   -4.4978171   -2.9804273   0.12457867   -4.4978171    1.5173898      1024000 
   46000    1.0126903   -4.4986326   -4.4986326   -2.9796001   0.12731187   -4.4986326    1.5190325      1024000 
   47000    1.0131723    -4.501025    -4.501025   -2.9812697   0.13617684    -4.501025    1.5197553      1024000 
   48000    1.0149437   -4.5031884   -4.5031884   -2.9807759   0.13842189   -4.5031884    1.5224125      1024000 
   49000    1.0155726    -4.505729    -4.505729   -2.9823731   0.13687417    -4.505729    1.5233559      1024000 
   50000    1.0163576   -4.5097479   -4.5097479   -2.9852146   0.13888205   -4.5097479    1.5245333      1024000 
   51000    1.0182262   -4.5139591   -4.5139591   -2.9866228   0.14464373   -4.5139591    1.5273363      1024000 
   52000    1.0206559   -4.5230969   -4.5230969   -2.9921161   0.15124854   -4.5230969    1.5309808      1024000 
   53000    1.0235159   -4.5357931   -4.5357931   -3.0005224   0.16399356   -4.5357931    1.5352708      1024000 
   54000    1.0282905   -4.5546367   -4.5546367   -3.0122041   0.17225754   -4.5546367    1.5424326      1024000 
   55000    1.0256455   -4.5668453   -4.5668453   -3.0283801   0.17870742   -4.5668453    1.5384652      1024000 
   56000    1.0269601   -4.5768754   -4.5768754   -3.0364384   0.18948497   -4.5768754     1.540437      1024000 
   57000    1.0226169   -4.5788014   -4.5788014    -3.044879   0.18729842   -4.5788014    1.5339223      1024000 
   58000    1.0196752   -4.5809954   -4.5809954   -3.0514856   0.16550074   -4.5809954    1.5295098      1024000 
   59000    1.0158595   -4.5773378   -4.5773378   -3.0535516   0.16350283   -4.5773378    1.5237862      1024000 
   60000    1.0132034    -4.573264    -4.573264    -3.053462   0.16155671    -4.573264     1.519802      1024000 
   61000    1.0125108     -4.57156     -4.57156   -3.0527968   0.14407962     -4.57156    1.5187632      1024000 
   62000    1.0086078   -4.5644463   -4.5644463   -3.0515376   0.13446772   -4.5644463    1.5129087      1024000 
   63000    1.0062508   -4.5615162   -4.5615162   -3.0521431   0.13133068   -4.5615162    1.5093731      1024000 
   64000    1.0069819   -4.5599488   -4.5599488    -3.049479   0.12091396   -4.5599488    1.5104698      1024000 
   65000    1.0067283   -4.5593781   -4.5593781   -3.0492886   0.11504797   -4.5593781    1.5100895      1024000 
   66000    1.0057306   -4.5586078   -4.5586078   -3.0500149   0.12085425   -4.5586078    1.5085929      1024000 
   67000    1.0111549   -4.5669725   -4.5669725   -3.0502431    0.1194653   -4.5669725    1.5167294      1024000 
   68000     1.012917    -4.568764    -4.568764   -3.0493915    0.1327273    -4.568764    1.5193725      1024000 
   69000    1.0122521   -4.5692325   -4.5692325   -3.0508574   0.14113629   -4.5692325    1.5183751      1024000 
   70000    1.0139323   -4.5726379   -4.5726379   -3.0517425   0.13442528   -4.5726379    1.5208954      1024000 
   71000    1.0140343   -4.5734981   -4.5734981   -3.0524498   0.13124944   -4.5734981    1.5210483      1024000 
   72000    1.0124749   -4.5714254   -4.5714254   -3.0527162   0.13048487   -4.5714254    1.5187093      1024000 
   73000    1.0122666   -4.5701225   -4.5701225   -3.0517257   0.12828181   -4.5701225    1.5183968      1024000 
   74000    1.0095363   -4.5688956   -4.5688956   -3.0545942    0.1182098   -4.5688956    1.5143014      1024000 
   75000     1.009817   -4.5676108   -4.5676108   -3.0528883   0.12101676   -4.5676108    1.5147225      1024000 
   76000    1.0111402   -4.5685688   -4.5685688   -3.0518615   0.12187868   -4.5685688    1.5167073      1024000 
   77000    1.0121778    -4.569371    -4.569371   -3.0511073   0.12458709    -4.569371    1.5182637      1024000 
   78000    1.0156988   -4.5745417   -4.5745417   -3.0509965   0.12227853   -4.5745417    1.5235452      1024000 
   79000    1.0151035    -4.573895    -4.573895   -3.0512429   0.12729265    -4.573895    1.5226521      1024000 
   80000     1.015009   -4.5749637   -4.5749637   -3.0524533    0.1256576   -4.5749637    1.5225104      1024000 
   81000    1.0138858   -4.5734329   -4.5734329   -3.0526073    0.1264588   -4.5734329    1.5208257      1024000 
   82000     1.015202   -4.5734679   -4.5734679    -3.050668   0.12437927   -4.5734679       1.5228      1024000 
   83000     1.015519   -4.5744571   -4.5744571   -3.0511816   0.12146303   -4.5744571    1.5232755      1024000 
   84000    1.0147555   -4.5731926   -4.5731926   -3.0510624   0.12317737   -4.5731926    1.5221302      1024000 
   85000    1.0151061   -4.5749732   -4.5749732   -3.0523171   0.11648441   -4.5749732    1.5226561      1024000 
   86000    1.0157844   -4.5749314   -4.5749314   -3.0512578   0.12025593   -4.5749314    1.5236736      1024000 
   87000    1.0152024   -4.5752473   -4.5752473   -3.0524468    0.1258812   -4.5752473    1.5228005      1024000 
   88000    1.0173705   -4.5787885   -4.5787885   -3.0527358   0.11413378   -4.5787885    1.5260527      1024000 
   89000    1.0162476   -4.5766935   -4.5766935   -3.0523251   0.11782344   -4.5766935    1.5243684      1024000 
   90000    1.0171305   -4.5793542   -4.5793542   -3.0536615    0.1236382   -4.5793542    1.5256927      1024000 
   91000    1.0189003   -4.5815101   -4.5815101   -3.0531627   0.12121456   -4.5815101    1.5283474      1024000 
   92000    1.0169601    -4.579767    -4.579767     -3.05433   0.12940097    -4.579767    1.5254371      1024000 
   93000     1.019781   -4.5826722   -4.5826722   -3.0530039   0.13001287   -4.5826722    1.5296684      1024000 
   94000    1.0194411   -4.5835605   -4.5835605   -3.0544019   0.12498783   -4.5835605    1.5291586      1024000 
   95000    1.0192311   -4.5857724   -4.5857724   -3.0569288   0.12769822   -4.5857724    1.5288437      1024000 
   96000    1.0204269   -4.5856813   -4.5856813   -3.0550441   0.12852762   -4.5856813    1.5306372      1024000 
   97000    1.0200231   -4.5865853   -4.5865853   -3.0565537   0.13059616   -4.5865853    1.5300316      1024000 
   98000    1.0211946   -4.5889051   -4.5889051   -3.0571163   0.12725632   -4.5889051    1.5317888      1024000 
   99000    1.0218811   -4.5881443   -4.5881443   -3.0553258   0.12871237   -4.5881443    1.5328185      1024000 
  100000     1.022362   -4.5884456   -4.5884456   -3.0549056   0.13105429   -4.5884456      1.53354      1024000 
  101000    1.0235193   -4.5915276   -4.5915276   -3.0562516   0.13488763   -4.5915276    1.5352759      1024000 
  102000    1.0247283   -4.5948769   -4.5948769   -3.0577876   0.13344762   -4.5948769    1.5370893      1024000 
  103000    1.0260164    -4.596614    -4.596614   -3.0575925   0.13364208    -4.596614    1.5390215      1024000 
  104000    1.0274942   -4.5999863   -4.5999863   -3.0587481   0.13851423   -4.5999863    1.5412382      1024000 
  105000    1.0279201   -4.6010428   -4.6010428   -3.0591658   0.14898311   -4.6010428     1.541877      1024000 
  106000    1.0302653   -4.6051652   -4.6051652   -3.0597704   0.15349485   -4.6051652    1.5453948      1024000 
  107000    1.0319095   -4.6078023   -4.6078023   -3.0599411   0.15760313   -4.6078023    1.5478612      1024000 
  108000    1.0333595   -4.6111925   -4.6111925   -3.0611563   0.16632956   -4.6111925    1.5500362      1024000 
  109000    1.0363602   -4.6185133   -4.6185133   -3.0639761   0.16604213   -4.6185133    1.5545372      1024000 
  110000    1.0381993   -4.6210575   -4.6210575   -3.0637617   0.17779567   -4.6210575    1.5572958      1024000 
  111000    1.0384594   -4.6232296   -4.6232296   -3.0655436   0.18628104   -4.6232296    1.5576859      1024000 
  112000    1.0397353   -4.6276718   -4.6276718    -3.068072   0.18954397   -4.6276718    1.5595998      1024000 
  113000    1.0404129   -4.6303032   -4.6303032   -3.0696869   0.18539469   -4.6303032    1.5606162      1024000 
  114000    1.0395076   -4.6311846   -4.6311846   -3.0719263   0.18510043   -4.6311846    1.5592583      1024000 
  115000    1.0371374   -4.6291372   -4.6291372   -3.0734343    0.1844523   -4.6291372    1.5557029      1024000 
  116000    1.0364769   -4.6278336   -4.6278336   -3.0731213   0.18088317   -4.6278336    1.5547123      1024000 
  117000    1.0348144   -4.6275572   -4.6275572   -3.0753388   0.17103689   -4.6275572    1.5522185      1024000 
  118000    1.0324835   -4.6255222   -4.6255222      -3.0768   0.16337645   -4.6255222    1.5487222      1024000 
  119000    1.0306858   -4.6240201   -4.6240201   -3.0779946   0.15669234   -4.6240201    1.5460255      1024000 
  120000    1.0270004   -4.6183347   -4.6183347   -3.0778373   0.14502192   -4.6183347    1.5404975      1024000 
  121000    1.0215554   -4.6122006   -4.6122006   -3.0798706   0.13567987   -4.6122006      1.53233      1024000 
  122000    1.0202902   -4.6074881   -4.6074881   -3.0770559    0.1300256   -4.6074881    1.5304322      1024000 
  123000    1.0171729   -4.6029324   -4.6029324    -3.077176   0.11459387   -4.6029324    1.5257564      1024000 
  124000    1.0126256   -4.5935946   -4.5935946   -3.0746593    0.1057292   -4.5935946    1.5189354      1024000 
  125000    1.0101686   -4.5880474   -4.5880474   -3.0727976  0.089525288   -4.5880474    1.5152499      1024000 
  126000    1.0071877   -4.5830539   -4.5830539   -3.0722753  0.081138441   -4.5830539    1.5107786      1024000 
  127000    1.0041263   -4.5770978   -4.5770978   -3.0709114  0.073129119   -4.5770978    1.5061864      1024000 
  128000   0.99966397   -4.5701884   -4.5701884   -3.0706954  0.060950279   -4.5701884     1.499493      1024000 
  129000   0.99720885   -4.5652723   -4.5652723    -3.069462  0.050549739   -4.5652723    1.4958103      1024000 
  130000   0.99410748   -4.5582951   -4.5582951   -3.0671369  0.046268422   -4.5582951    1.4911582      1024000 
  131000   0.99277621   -4.5536281   -4.5536281   -3.0644668  0.039013903   -4.5536281    1.4891613      1024000 
  132000   0.99073503   -4.5478691   -4.5478691   -3.0617695  0.035672716   -4.5478691    1.4860996      1024000 
  133000   0.98768749   -4.5435628   -4.5435628   -3.0620346  0.033084906   -4.5435628    1.4815283      1024000 
  134000   0.98809311   -4.5414539   -4.5414539   -3.0593172  0.017725812   -4.5414539    1.4821367      1024000 
  135000   0.98657065   -4.5362926   -4.5362926   -3.0564396  0.028142746   -4.5362926     1.479853      1024000 
  136000   0.98682002   -4.5354967   -4.5354967   -3.0552696  0.020374363   -4.5354967    1.4802271      1024000 
  137000    0.9874183   -4.5346025   -4.5346025    -3.053478  0.018190966   -4.5346025    1.4811245      1024000 
  138000   0.98611445   -4.5314075   -4.5314075   -3.0522388  0.018805112   -4.5314075    1.4791687      1024000 
  139000    0.9870644    -4.532926    -4.532926   -3.0523323  0.013486548    -4.532926    1.4805936      1024000 
  140000   0.98595336   -4.5277684   -4.5277684   -3.0488413  0.016822311   -4.5277684    1.4789271      1024000 
  141000   0.98597193   -4.5294749   -4.5294749     -3.05052   0.01346794   -4.5294749    1.4789549      1024000 
  142000   0.98810112   -4.5330735   -4.5330735   -3.0509248  0.016729881   -4.5330735    1.4821487      1024000 
  143000   0.98818886   -4.5332465   -4.5332465   -3.0509662  0.021063027   -4.5332465    1.4822803      1024000 
  144000   0.99217521   -4.5361735   -4.5361735   -3.0479136  0.023722256   -4.5361735    1.4882598      1024000 
  145000   0.99264949   -4.5377085   -4.5377085   -3.0487372  0.034661645   -4.5377085    1.4889713      1024000 
  146000   0.99615034   -4.5416566   -4.5416566   -3.0474341   0.04020623   -4.5416566    1.4942225      1024000 
  147000   0.99672177   -4.5449956   -4.5449956    -3.049916  0.039347038   -4.5449956    1.4950797      1024000 
  148000   0.99740737   -4.5458291   -4.5458291   -3.0497211  0.049422814   -4.5458291    1.4961081      1024000 
  149000    1.0000836   -4.5508192   -4.5508192   -3.0506968  0.051199237   -4.5508192    1.5001224      1024000 
  150000    1.0041684   -4.5560802   -4.5560802   -3.0498306  0.056248946   -4.5560802    1.5062496      1024000 
  151000    1.0057713   -4.5613938   -4.5613938   -3.0527399  0.060970133   -4.5613938    1.5086539      1024000 
  152000    1.0063147   -4.5606695   -4.5606695   -3.0512004   0.07093583   -4.5606695    1.5094691      1024000 
  153000    1.0098599   -4.5664715   -4.5664715   -3.0516846  0.075104603   -4.5664715    1.5147869      1024000 
  154000    1.0096546   -4.5690607   -4.5690607   -3.0545819  0.083572465   -4.5690607    1.5144788      1024000 
  155000    1.0117972   -4.5735271   -4.5735271   -3.0558343  0.081622957   -4.5735271    1.5176927      1024000 
  156000    1.0118949   -4.5747249   -4.5747249   -3.0568855  0.089132865   -4.5747249    1.5178394      1024000 
  157000    1.0133765    -4.576338    -4.576338   -3.0562763   0.09072695    -4.576338    1.5200617      1024000 
  158000    1.0119786   -4.5774664   -4.5774664   -3.0595015  0.092180913   -4.5774664    1.5179649      1024000 
  159000    1.0130986   -4.5803086   -4.5803086   -3.0606637  0.091513551   -4.5803086    1.5196449      1024000 
  160000    1.0116375   -4.5799052   -4.5799052   -3.0624519  0.098183647   -4.5799052    1.5174532      1024000 
  161000    1.0147891   -4.5839263   -4.5839263   -3.0617456  0.095358158   -4.5839263    1.5221807      1024000 
  162000    1.0129024   -4.5835566   -4.5835566   -3.0642061    0.1005734   -4.5835566    1.5193505      1024000 
  163000    1.0154502   -4.5876841   -4.5876841   -3.0645118  0.092352429   -4.5876841    1.5231723      1024000 
  164000    1.0142578   -4.5858622   -4.5858622   -3.0644785   0.10177544   -4.5858622    1.5213837      1024000 
  165000    1.0158759   -4.5904334   -4.5904334   -3.0666226  0.095490735   -4.5904334    1.5238108      1024000 
  166000    1.0155009   -4.5887622   -4.5887622   -3.0655138    0.1004545   -4.5887622    1.5232483      1024000 
  167000     1.014599   -4.5886289   -4.5886289   -3.0667334   0.10091797   -4.5886289    1.5218955      1024000 
  168000    1.0128184   -4.5865111   -4.5865111   -3.0672866   0.10671472   -4.5865111    1.5192246      1024000 
  169000    1.0146618   -4.5900501   -4.5900501   -3.0680605  0.095535975   -4.5900501    1.5219896      1024000 
  170000    1.0135405   -4.5884583   -4.5884583   -3.0681505  0.099651704   -4.5884583    1.5203077      1024000 
  171000    1.0131895   -4.5879391   -4.5879391    -3.068158   0.10118651   -4.5879391    1.5197811      1024000 
  172000     1.011617   -4.5893319   -4.5893319   -3.0719095   0.09460975   -4.5893319    1.5174224      1024000 
  173000    1.0113255   -4.5875565   -4.5875565   -3.0705712  0.090920685   -4.5875565    1.5169853      1024000 
  174000    1.0111508   -4.5875793   -4.5875793   -3.0708561  0.081976453   -4.5875793    1.5167232      1024000 
  175000    1.0084389    -4.584607    -4.584607   -3.0719516  0.080006013    -4.584607    1.5126554      1024000 
  176000    1.0077603   -4.5809574   -4.5809574     -3.06932  0.078891041   -4.5809574    1.5116374      1024000 
  177000    1.0067766   -4.5813922   -4.5813922   -3.0712303  0.076936573   -4.5813922    1.5101619      1024000 
  178000    1.0044082   -4.5775706   -4.5775706   -3.0709614  0.077360086   -4.5775706    1.5066092      1024000 
  179000    1.0049575   -4.5785038   -4.5785038   -3.0710706   0.07649621   -4.5785038    1.5074332      1024000 
  180000    1.0047939   -4.5776304   -4.5776304   -3.0704425  0.063827995   -4.5776304    1.5071879      1024000 
  181000    1.0021892   -4.5715942   -4.5715942   -3.0683134  0.068882814   -4.5715942    1.5032807      1024000 
  182000    1.0016632   -4.5720243   -4.5720243   -3.0695326  0.058066655   -4.5720243    1.5024917      1024000 
  183000    1.0006592   -4.5713953   -4.5713953   -3.0704095   0.05226738   -4.5713953    1.5009858      1024000 
  184000     1.000891   -4.5687969   -4.5687969   -3.0674634  0.052679916   -4.5687969    1.5013335      1024000 
  185000    1.0001093   -4.5670713   -4.5670713   -3.0669104  0.057484016   -4.5670713     1.500161      1024000 
  186000   0.99825501   -4.5638003   -4.5638003   -3.0664208  0.054553198   -4.5638003    1.4973795      1024000 
  187000   0.99889033   -4.5653526   -4.5653526   -3.0670201  0.046248679   -4.5653526    1.4983325      1024000 
  188000   0.99766458   -4.5630287   -4.5630287   -3.0665348  0.047464306   -4.5630287    1.4964939      1024000 
  189000   0.99740629   -4.5634786   -4.5634786   -3.0673722  0.041827404   -4.5634786    1.4961064      1024000 
  190000   0.99639646   -4.5627108   -4.5627108   -3.0681191  0.044016948   -4.5627108    1.4945917      1024000 
  191000   0.99588417   -4.5594844   -4.5594844   -3.0656611  0.047245216   -4.5594844    1.4938233      1024000 
  192000   0.99679897   -4.5605162   -4.5605162   -3.0653208  0.046773875   -4.5605162    1.4951955      1024000 
  193000   0.99816587   -4.5625691   -4.5625691   -3.0653233  0.045573594   -4.5625691    1.4972458      1024000 
  194000   0.99756917   -4.5614142   -4.5614142   -3.0650635  0.053908358   -4.5614142    1.4963508      1024000 
  195000    1.0005816   -4.5640194   -4.5640194     -3.06315  0.051377753   -4.5640194    1.5008694      1024000 
  196000     0.998989   -4.5613105   -4.5613105     -3.06283  0.063618993   -4.5613105    1.4984805      1024000 
  197000    1.0024063   -4.5673627   -4.5673627   -3.0637562  0.053955246   -4.5673627    1.5036065      1024000 
  198000    1.0004886   -4.5648911   -4.5648911   -3.0641611  0.056963396   -4.5648911      1.50073      1024000 
  199000    1.0020183   -4.5668395   -4.5668395   -3.0638151   0.05781286   -4.5668395    1.5030244      1024000 
  200000    1.0017198   -4.5697042   -4.5697042   -3.0671275  0.054693673   -4.5697042    1.5025767      1024000 
  201000    1.0020289   -4.5692893   -4.5692893   -3.0662489  0.061961592   -4.5692893    1.5030404      1024000 
  202000    1.0034148   -4.5717028   -4.5717028   -3.0665836  0.061808984   -4.5717028    1.5051192      1024000 
  203000    1.0029475   -4.5733327   -4.5733327   -3.0689145   0.06725767   -4.5733327    1.5044182      1024000 
  204000    1.0031452   -4.5761009   -4.5761009   -3.0713862  0.065989942   -4.5761009    1.5047147      1024000 
  205000    1.0037852   -4.5761917   -4.5761917   -3.0705169  0.073117055   -4.5761917    1.5056748      1024000 
  206000    1.0052012   -4.5778932   -4.5778932   -3.0700943  0.070052567   -4.5778932    1.5077989      1024000 
  207000    1.0058177   -4.5784462   -4.5784462   -3.0697228  0.073838652   -4.5784462    1.5087235      1024000 
  208000    1.0064227   -4.5801531   -4.5801531    -3.070522  0.073962906   -4.5801531    1.5096311      1024000 
  209000    1.0071296   -4.5818221   -4.5818221   -3.0711307  0.073504812   -4.5818221    1.5106914      1024000 
  210000    1.0092356   -4.5828182   -4.5828182   -3.0689679  0.079114261   -4.5828182    1.5138503      1024000 
  211000    1.0079465   -4.5846628   -4.5846628   -3.0727462  0.079589963   -4.5846628    1.5119167      1024000 
  212000    1.0084596   -4.5846331   -4.5846331   -3.0719467  0.084527608   -4.5846331    1.5126864      1024000 
  213000    1.0091545   -4.5854492   -4.5854492   -3.0717204    0.0884624   -4.5854492    1.5137288      1024000 
  214000    1.0085697   -4.5865313   -4.5865313   -3.0736798   0.08117337   -4.5865313    1.5128516      1024000 
  215000    1.0078446   -4.5854689   -4.5854689   -3.0737051  0.078633891   -4.5854689    1.5117639      1024000 
  216000    1.0075624   -4.5859507   -4.5859507   -3.0746101  0.076332703   -4.5859507    1.5113406      1024000 
  217000    1.0073479   -4.5850941   -4.5850941   -3.0740753   0.07759764   -4.5850941    1.5110189      1024000 
  218000    1.0058561   -4.5851414   -4.5851414   -3.0763603  0.074392857   -4.5851414    1.5087811      1024000 
  219000    1.0056985   -4.5836704   -4.5836704   -3.0751257  0.076940992   -4.5836704    1.5085447      1024000 
  220000    1.0037765   -4.5829217   -4.5829217     -3.07726  0.080412911   -4.5829217    1.5056617      1024000 
  221000    1.0064646    -4.585193    -4.585193   -3.0754991  0.074966829    -4.585193    1.5096939      1024000 
  222000    1.0061047   -4.5839993   -4.5839993   -3.0748452  0.074500324   -4.5839993    1.5091541      1024000 
  223000    1.0035875   -4.5814505   -4.5814505   -3.0760723  0.083479753   -4.5814505    1.5053782      1024000 
  224000    1.0033818   -4.5815077   -4.5815077    -3.076438  0.073232431   -4.5815077    1.5050697      1024000 
  225000    1.0039954   -4.5826111   -4.5826111    -3.076621   0.06913605   -4.5826111    1.5059901      1024000 
  226000    1.0022581   -4.5806798   -4.5806798   -3.0772957  0.062943076   -4.5806798    1.5033841      1024000 
  227000    1.0001508   -4.5788138   -4.5788138   -3.0785906  0.060325425   -4.5788138    1.5002232      1024000 
  228000    1.0000925   -4.5771265   -4.5771265   -3.0769907  0.059746247   -4.5771265    1.5001358      1024000 
  229000     1.000123   -4.5759982   -4.5759982   -3.0758167  0.063935759   -4.5759982    1.5001815      1024000 
  230000   0.99872422   -4.5752562   -4.5752562   -3.0771729  0.061527459   -4.5752562    1.4980833      1024000 
  231000   0.99926436   -4.5737035   -4.5737035   -3.0748099  0.054289055   -4.5737035    1.4988935      1024000 
  232000   0.99899459   -4.5755697   -4.5755697   -3.0770809  0.056311931   -4.5755697    1.4984889      1024000 
  233000   0.99764979   -4.5750535   -4.5750535   -3.0785818   0.05096272   -4.5750535    1.4964717      1024000 
  234000   0.99866672   -4.5745781   -4.5745781    -3.076581  0.051592093   -4.5745781    1.4979971      1024000 
  235000    1.0005296   -4.5738836   -4.5738836   -3.0730921  0.056060584   -4.5738836    1.5007915      1024000 
  236000   0.99974496   -4.5748305   -4.5748305    -3.075216  0.048851318   -4.5748305    1.4996144      1024000 
  237000    1.0001924   -4.5741176   -4.5741176   -3.0738321  0.055992168   -4.5741176    1.5002855      1024000 
  238000   0.99944163   -4.5742365   -4.5742365   -3.0750771  0.050605128   -4.5742365    1.4991594      1024000 
  239000   0.99999654   -4.5718841   -4.5718841   -3.0718923  0.057376745   -4.5718841    1.4999918      1024000 
  240000    1.0001427   -4.5740474   -4.5740474   -3.0738363  0.053326516   -4.5740474    1.5002111      1024000 
  241000   0.99930235   -4.5737996   -4.5737996    -3.074849  0.051310043   -4.5737996    1.4989505      1024000 
  242000    0.9994238   -4.5737782   -4.5737782   -3.0746455  0.057244523   -4.5737782    1.4991327      1024000 
  243000   0.99947921   -4.5743003   -4.5743003   -3.0750845  0.060783074   -4.5743003    1.4992158      1024000 
  244000   0.99988886   -4.5746369   -4.5746369   -3.0748066  0.060490206   -4.5746369    1.4998303      1024000 
  245000    1.0016095   -4.5768745   -4.5768745   -3.0744632  0.053512022   -4.5768745    1.5024113      1024000 
  246000    1.0010811   -4.5759967   -4.5759967   -3.0743781  0.057374348   -4.5759967    1.5016186      1024000 
  247000    1.0034624   -4.5799153   -4.5799153   -3.0747247  0.058947561   -4.5799153    1.5051906      1024000 
  248000    1.0043079    -4.581071    -4.581071   -3.0746121  0.059335463    -4.581071    1.5064588      1024000 
  249000    1.0038791   -4.5799923   -4.5799923   -3.0741766  0.066217949   -4.5799923    1.5058157      1024000 
  250000    1.0020995    -4.580413    -4.580413   -3.0772668  0.064722239    -4.580413    1.5031463      1024000 
  251000    1.0026248   -4.5814318   -4.5814318   -3.0774975  0.066891615   -4.5814318    1.5039342      1024000 
  252000    1.0023065   -4.5807225   -4.5807225   -3.0772658  0.069258864   -4.5807225    1.5034567      1024000 
  253000    1.0034006   -4.5820572   -4.5820572   -3.0769593  0.067056755   -4.5820572    1.5050979      1024000 
  254000    1.0019859   -4.5824851   -4.5824851   -3.0795092  0.070862914   -4.5824851    1.5029759      1024000 
  255000    1.0038495   -4.5843884   -4.5843884   -3.0786171  0.067265887   -4.5843884    1.5057713      1024000 
  256000    1.0037432   -4.5851152   -4.5851152   -3.0795034  0.064779869   -4.5851152    1.5056118      1024000 
  257000    1.0039178   -4.5853284   -4.5853284   -3.0794548  0.069734804   -4.5853284    1.5058736      1024000 
  258000     1.004857   -4.5862062   -4.5862062   -3.0789237  0.068786902   -4.5862062    1.5072825      1024000 
  259000    1.0019118   -4.5841655   -4.5841655   -3.0813008   0.07047234   -4.5841655    1.5028647      1024000 
  260000    1.0039319   -4.5870087   -4.5870087   -3.0811139  0.067389806   -4.5870087    1.5058948      1024000 
  261000    1.0036179   -4.5883008   -4.5883008    -3.082877  0.065766422   -4.5883008    1.5054238      1024000 
  262000    1.0028239   -4.5864444   -4.5864444   -3.0822116   0.06877461   -4.5864444    1.5042328      1024000 
  263000    1.0030125   -4.5855793   -4.5855793   -3.0810636  0.069452568   -4.5855793    1.5045157      1024000 
  264000    1.0030561    -4.586822    -4.586822   -3.0822409  0.071520492    -4.586822    1.5045811      1024000 
  265000    1.0030136   -4.5852522   -4.5852522   -3.0807349  0.070636765   -4.5852522    1.5045173      1024000 
  266000    1.0021696   -4.5845343   -4.5845343   -3.0812829  0.075156711   -4.5845343    1.5032514      1024000 
  267000    1.0016613   -4.5859324   -4.5859324   -3.0834434  0.065380023   -4.5859324     1.502489      1024000 
  268000    1.0005251    -4.583611    -4.583611   -3.0828263  0.063007739    -4.583611    1.5007846      1024000 
  269000    1.0013429   -4.5852707   -4.5852707   -3.0832592  0.062375021   -4.5852707    1.5020114      1024000 
  270000    1.0000148   -4.5862415   -4.5862415   -3.0862224   0.06599187   -4.5862415    1.5000192      1024000 
  271000   0.99928351   -4.5838094   -4.5838094   -3.0848872  0.069001287   -4.5838094    1.4989223      1024000 
  272000    1.0017698   -4.5838087   -4.5838087   -3.0811571   0.06852782   -4.5838087    1.5026516      1024000 
  273000    1.0010983   -4.5844652   -4.5844652   -3.0828207   0.06515631   -4.5844652    1.5016445      1024000 
  274000    1.0004061   -4.5838246   -4.5838246   -3.0832184  0.061892549   -4.5838246    1.5006062      1024000 
  275000    1.0008461   -4.5840865   -4.5840865   -3.0828203  0.057141394   -4.5840865    1.5012662      1024000 
  276000    1.0000301    -4.583921    -4.583921   -3.0838788  0.059841216    -4.583921    1.5000422      1024000 
  277000    1.0004911   -4.5839088   -4.5839088   -3.0831752  0.055056639   -4.5839088    1.5007337      1024000 
  278000   0.99761982   -4.5807788   -4.5807788   -3.0843521  0.060835211   -4.5807788    1.4964267      1024000 
  279000   0.99945459   -4.5839491   -4.5839491   -3.0847702  0.058361014   -4.5839491    1.4991789      1024000 
  280000   0.99874866   -4.5813363   -4.5813363   -3.0832163  0.058956046   -4.5813363      1.49812      1024000 
  281000   0.99833508   -4.5814568   -4.5814568   -3.0839572  0.062196211   -4.5814568    1.4974996      1024000 
  282000   0.99831139   -4.5845342   -4.5845342   -3.0870701  0.053183919   -4.5845342    1.4974641      1024000 
  283000   0.99715579   -4.5810076   -4.5810076   -3.0852769  0.062545125   -4.5810076    1.4957307      1024000 
  284000   0.99843698   -4.5831121   -4.5831121   -3.0854596  0.058185501   -4.5831121    1.4976525      1024000 
  285000   0.99759662   -4.5833507   -4.5833507   -3.0869587  0.052540984   -4.5833507    1.4963919      1024000 
  286000    0.9989165   -4.5825837   -4.5825837   -3.0842119  0.061603464   -4.5825837    1.4983717      1024000 
  287000   0.99862491   -4.5821847   -4.5821847   -3.0842504  0.063858514   -4.5821847    1.4979344      1024000 
  288000   0.99882206   -4.5835223   -4.5835223   -3.0852922  0.058039096   -4.5835223    1.4982301      1024000 
  289000   0.99977081   -4.5843584   -4.5843584   -3.0847052  0.058319724   -4.5843584    1.4996532      1024000 
  290000   0.99962721   -4.5847707   -4.5847707   -3.0853329  0.057326999   -4.5847707    1.4994378      1024000 
  291000    0.9999475   -4.5835894   -4.5835894   -3.0836711  0.068578381   -4.5835894    1.4999182      1024000 
  292000    1.0001796    -4.585149    -4.585149   -3.0848827  0.059716463    -4.585149    1.5002663      1024000 
  293000     1.000893   -4.5856322   -4.5856322   -3.0842956   0.06194987   -4.5856322    1.5013365      1024000 
  294000     1.002471   -4.5879581   -4.5879581   -3.0842546  0.060425175   -4.5879581    1.5037034      1024000 
  295000    1.0008588   -4.5874564   -4.5874564   -3.0861712  0.066162638   -4.5874564    1.5012852      1024000 
  296000    1.0014209   -4.5877942   -4.5877942   -3.0856659  0.069339598   -4.5877942    1.5021283      1024000 
  297000    1.0009978   -4.5870975   -4.5870975   -3.0856038  0.061345877   -4.5870975    1.5014937      1024000 
  298000    1.0008857    -4.586313    -4.586313   -3.0849874  0.064952736    -4.586313    1.5013255      1024000 
  299000    1.0005682   -4.5847757   -4.5847757   -3.0839263  0.071187475   -4.5847757    1.5008494      1024000 
  300000    1.0008587   -4.5879832   -4.5879832   -3.0866982  0.066882684   -4.5879832     1.501285      1024000 
  301000    1.0025814   -4.5896541   -4.5896541   -3.0857849  0.063058477   -4.5896541    1.5038691      1024000 
  302000    1.0015572   -4.5871043   -4.5871043   -3.0847716  0.071634937   -4.5871043    1.5023328      1024000 
  303000    1.0014256   -4.5888742   -4.5888742   -3.0867389  0.066581082   -4.5888742    1.5021353      1024000 
  304000    1.0003948   -4.5890358   -4.5890358   -3.0884467  0.070133289   -4.5890358    1.5005892      1024000 
  305000    1.0009055   -4.5869322   -4.5869322    -3.085577  0.073458006   -4.5869322    1.5013553      1024000 
  306000   0.99937451   -4.5876488   -4.5876488   -3.0885901  0.063660536   -4.5876488    1.4990588      1024000 
  307000   0.99917607    -4.587423    -4.587423   -3.0886618  0.064267142    -4.587423    1.4987611      1024000 
  308000    1.0021885   -4.5868785   -4.5868785   -3.0835988  0.065339244   -4.5868785    1.5032797      1024000 
  309000     1.001136   -4.5897172   -4.5897172   -3.0880162  0.058952608   -4.5897172     1.501701      1024000 
  310000   0.99970917   -4.5869704   -4.5869704   -3.0874097  0.065661676   -4.5869704    1.4995607      1024000 
  311000    1.0008668   -4.5896677   -4.5896677   -3.0883704  0.061110261   -4.5896677    1.5012973      1024000 
  312000   0.99901108    -4.586792    -4.586792   -3.0882784   0.06470263    -4.586792    1.4985136      1024000 
  313000   0.99733063    -4.585762    -4.585762   -3.0897691  0.067146692    -4.585762    1.4959929      1024000 
  314000   0.99977841   -4.5865625   -4.5865625   -3.0868978  0.063907421   -4.5865625    1.4996646      1024000 
  315000   0.99940645   -4.5872856   -4.5872856    -3.088179  0.060974056   -4.5872856    1.4991067      1024000 
  316000   0.99857772   -4.5857872   -4.5857872   -3.0879236  0.062853376   -4.5857872    1.4978636      1024000 
  317000   0.99734619    -4.585417    -4.585417   -3.0894008  0.059365465    -4.585417    1.4960163      1024000 
  318000   0.99808798   -4.5864713   -4.5864713   -3.0893423  0.058311644   -4.5864713     1.497129      1024000 
  319000   0.99854257   -4.5874697   -4.5874697   -3.0896588  0.056130314   -4.5874697    1.4978109      1024000 
  320000   0.99766464   -4.5861409   -4.5861409   -3.0896469  0.061444373   -4.5861409     1.496494      1024000 
  321000   0.99911379   -4.5882463   -4.5882463   -3.0895786  0.053138922   -4.5882463    1.4986677      1024000 
  322000   0.99894204   -4.5891541   -4.5891541   -3.0907441  0.054177851   -4.5891541    1.4984101      1024000 
  323000   0.99708301    -4.584858    -4.584858   -3.0892365  0.061825824    -4.584858    1.4956215      1024000 
  324000   0.99801159     -4.58664     -4.58664   -3.0896256  0.061968786     -4.58664    1.4970144      1024000 
  325000   0.99775268   -4.5867722   -4.5867722   -3.0901461  0.061755764   -4.5867722     1.496626      1024000 
  326000   0.99892724    -4.587144    -4.587144   -3.0887562   0.06463512    -4.587144    1.4983879      1024000 
  327000   0.99992403   -4.5887427   -4.5887427   -3.0888596  0.065299427   -4.5887427     1.499883      1024000 
  328000   0.99749166   -4.5886526   -4.5886526   -3.0924181  0.064433959   -4.5886526    1.4962345      1024000 
  329000   0.99938281   -4.5912926   -4.5912926   -3.0922214  0.062390285   -4.5912926    1.4990712      1024000 
  330000   0.99968595   -4.5919268   -4.5919268   -3.0924009  0.064511982   -4.5919268    1.4995259      1024000 
  331000   0.99769944   -4.5909741   -4.5909741   -3.0944279     0.063735   -4.5909741    1.4965462      1024000 
  332000   0.99822414   -4.5898807   -4.5898807   -3.0925474  0.068760047   -4.5898807    1.4973332      1024000 
  333000    1.0003698   -4.5905823   -4.5905823   -3.0900305  0.071913714   -4.5905823    1.5005517      1024000 
  334000    0.9983524   -4.5905114   -4.5905114   -3.0929858  0.067700789   -4.5905114    1.4975256      1024000 
  335000   0.99800737   -4.5905588   -4.5905588   -3.0935507  0.069711905   -4.5905588    1.4970081      1024000 
  336000   0.99999502   -4.5929536   -4.5929536   -3.0929641  0.065609925   -4.5929536    1.4999895      1024000 
  337000    1.0003552    -4.593149    -4.593149   -3.0926192  0.065753385    -4.593149    1.5005297      1024000 
  338000    1.0007072   -4.5927105   -4.5927105   -3.0916527  0.069849029   -4.5927105    1.5010578      1024000 
  339000    1.0020042   -4.5934174   -4.5934174   -3.0904141   0.07017925   -4.5934174    1.5030033      1024000 
  340000   0.99931196   -4.5916743   -4.5916743   -3.0927093  0.067936902   -4.5916743    1.4989649      1024000 
  341000    1.0001759   -4.5926843   -4.5926843   -3.0924235  0.068158273   -4.5926843    1.5002608      1024000 
  342000    1.0012285   -4.5933184   -4.5933184   -3.0914787  0.065800368   -4.5933184    1.5018397      1024000 
  343000    1.0016501   -4.5955703   -4.5955703   -3.0930982  0.066531904   -4.5955703    1.5024721      1024000 
  344000   0.99967257   -4.5940095   -4.5940095   -3.0945037  0.069596745   -4.5940095    1.4995058      1024000 
  345000     0.999957   -4.5946612   -4.5946612   -3.0947287  0.065507638   -4.5946612    1.4999325      1024000 
  346000    1.0005585   -4.5942494   -4.5942494   -3.0934146  0.064393748   -4.5942494    1.5008347      1024000 
  347000     1.000891   -4.5946745   -4.5946745   -3.0933409  0.061765211   -4.5946745    1.5013336      1024000 
  348000   0.99718169   -4.5901474   -4.5901474   -3.0943778  0.069449003   -4.5901474    1.4957695      1024000 
  349000   0.99798663   -4.5921724   -4.5921724   -3.0951954   0.06605276   -4.5921724     1.496977      1024000 
  350000   0.99860575   -4.5930093   -4.5930093   -3.0951037  0.062173838   -4.5930093    1.4979056      1024000 
  351000   0.99677041   -4.5909761   -4.5909761   -3.0958235   0.06584789   -4.5909761    1.4951526      1024000 
  352000   0.99699444   -4.5908199   -4.5908199   -3.0953312  0.064766576   -4.5908199    1.4954887      1024000 
  353000   0.99731238    -4.591685    -4.591685   -3.0957194  0.062101097    -4.591685    1.4959656      1024000 
  354000   0.99868455   -4.5906456   -4.5906456   -3.0926218  0.065813682   -4.5906456    1.4980238      1024000 
  355000   0.99866368      -4.5919      -4.5919   -3.0939075  0.056248965      -4.5919    1.4979925      1024000 
  356000   0.99841561   -4.5903055   -4.5903055   -3.0926851  0.061863287   -4.5903055    1.4976204      1024000 
  357000   0.99784946   -4.5891994   -4.5891994   -3.0924282  0.059698818   -4.5891994    1.4967712      1024000 
  358000   0.99655337    -4.589403    -4.589403    -3.094576  0.061308217    -4.589403    1.4948271      1024000 
  359000   0.99874473   -4.5926956   -4.5926956   -3.0945815  0.056243652   -4.5926956    1.4981141      1024000 
  360000   0.99683213    -4.590242    -4.590242   -3.0949968  0.061942001    -4.590242    1.4952452      1024000 
  361000   0.99782235   -4.5902845   -4.5902845   -3.0935539  0.064546427   -4.5902845    1.4967305      1024000 
  362000   0.99810888   -4.5911219   -4.5911219   -3.0939615  0.063518289   -4.5911219    1.4971603      1024000 
  363000   0.99810219   -4.5910764   -4.5910764   -3.0939261  0.061087109   -4.5910764    1.4971503      1024000 
  364000   0.99567982     -4.58774     -4.58774   -3.0942233  0.064893676     -4.58774    1.4935167      1024000 
  365000   0.99768012   -4.5908144   -4.5908144   -3.0942972     0.060266   -4.5908144    1.4965172      1024000 
  366000   0.99634721   -4.5900279   -4.5900279   -3.0955101  0.059910763   -4.5900279    1.4945178      1024000 
  367000   0.99742876   -4.5912549   -4.5912549   -3.0951148  0.062875916   -4.5912549    1.4961401      1024000 
  368000   0.99824714   -4.5929655   -4.5929655   -3.0955978  0.062322276   -4.5929655    1.4973677      1024000 
  369000   0.99773576   -4.5931451   -4.5931451   -3.0965445  0.061765329   -4.5931451    1.4966006      1024000 
  370000   0.99797959    -4.593251    -4.593251   -3.0962846  0.063158482    -4.593251    1.4969664      1024000 
  371000   0.99666514   -4.5912916   -4.5912916   -3.0962969   0.06267538   -4.5912916    1.4949947      1024000 
  372000   0.99760133   -4.5926279   -4.5926279   -3.0962289  0.066637402   -4.5926279     1.496399      1024000 
  373000   0.99814251   -4.5932886   -4.5932886   -3.0960778  0.063679081   -4.5932886    1.4972108      1024000 
  374000   0.99847156   -4.5939869   -4.5939869   -3.0962825  0.064182126   -4.5939869    1.4977043      1024000 
  375000   0.99864762    -4.593842    -4.593842   -3.0958735  0.069613898    -4.593842    1.4979684      1024000 
  376000   0.99886805    -4.594438    -4.594438   -3.0961389  0.063449845    -4.594438    1.4982991      1024000 
  377000   0.99802607   -4.5925693   -4.5925693   -3.0955332  0.067277663   -4.5925693    1.4970361      1024000 
  378000   0.99944521   -4.5947088   -4.5947088    -3.095544  0.068235431   -4.5947088    1.4991648      1024000 
  379000   0.99907628   -4.5947885   -4.5947885    -3.096177  0.067651674   -4.5947885    1.4986114      1024000 
  380000    1.0005543   -4.5950845   -4.5950845   -3.0942561  0.070114453   -4.5950845    1.5008285      1024000 
  381000   0.99955109   -4.5946027   -4.5946027   -3.0952791  0.068901613   -4.5946027    1.4993236      1024000 
  382000   0.99881084   -4.5934379   -4.5934379   -3.0952246  0.071673326   -4.5934379    1.4982133      1024000 
  383000   0.99954811   -4.5946684   -4.5946684   -3.0953493  0.070644907   -4.5946684    1.4993192      1024000 
  384000    1.0006085   -4.5951331   -4.5951331   -3.0942233  0.068901441   -4.5951331    1.5009098      1024000 
  385000    1.0005895   -4.5964218   -4.5964218   -3.0955404   0.06780765   -4.5964218    1.5008813      1024000 
  386000   0.99920763   -4.5949361   -4.5949361   -3.0961277  0.069532022   -4.5949361    1.4988084      1024000 
  387000   0.99876057   -4.5949925   -4.5949925   -3.0968546  0.061087677   -4.5949925    1.4981379      1024000 
  388000   0.99815717   -4.5943325   -4.5943325   -3.0970997  0.068407749   -4.5943325    1.4972328      1024000 
  389000   0.99634872   -4.5929506   -4.5929506   -3.0984305  0.068357579   -4.5929506    1.4945201      1024000 
  390000   0.99911747   -4.5959016   -4.5959016   -3.0972284   0.06063313   -4.5959016    1.4986732      1024000 
  391000   0.99803238   -4.5943733   -4.5943733   -3.0973278  0.063270777   -4.5943733    1.4970456      1024000 
  392000   0.99743849   -4.5924595   -4.5924595   -3.0963048  0.072383201   -4.5924595    1.4961547      1024000 
  393000   0.99706342   -4.5917229   -4.5917229   -3.0961307  0.067299529   -4.5917229    1.4955921      1024000 
  394000   0.99733089   -4.5904023   -4.5904023    -3.094409  0.069572791   -4.5904023    1.4959933      1024000 
  395000   0.99743728   -4.5938714   -4.5938714   -3.0977185   0.05843517   -4.5938714    1.4961529      1024000 
  396000   0.99637205   -4.5920446   -4.5920446   -3.0974895  0.062986552   -4.5920446    1.4945551      1024000 
  397000   0.99869256   -4.5933331   -4.5933331   -3.0952973  0.060082622   -4.5933331    1.4980358      1024000 
  398000   0.99711556    -4.590705    -4.590705   -3.0950347  0.068430274    -4.590705    1.4956703      1024000 
  399000   0.99654186   -4.5924419   -4.5924419   -3.0976321  0.061501612   -4.5924419    1.4948098      1024000 
  400000   0.99739596   -4.5946121   -4.5946121   -3.0985211  0.060951717   -4.5946121    1.4960909      1024000 
  401000   0.99685091   -4.5927809   -4.5927809   -3.0975076  0.062970536   -4.5927809    1.4952734      1024000 
  402000   0.99665659   -4.5933053   -4.5933053   -3.0983235  0.063129347   -4.5933053    1.4949819      1024000 
  403000   0.99851221   -4.5943623   -4.5943623    -3.096597  0.062584033   -4.5943623    1.4977653      1024000 
  404000   0.99605532   -4.5922955   -4.5922955   -3.0982155  0.060248739   -4.5922955      1.49408      1024000 
  405000   0.99705546   -4.5936801   -4.5936801   -3.0980999  0.056834736   -4.5936801    1.4955802      1024000 
  406000   0.99645525   -4.5918344   -4.5918344   -3.0971545  0.066606995   -4.5918344    1.4946799      1024000 
  407000    0.9966795   -4.5923056   -4.5923056   -3.0972894  0.060181154   -4.5923056    1.4950163      1024000 
  408000   0.99836328   -4.5952682   -4.5952682   -3.0977263  0.060667305   -4.5952682    1.4975419      1024000 
  409000   0.99610037    -4.591637    -4.591637   -3.0974895  0.067472888    -4.591637    1.4941476      1024000 
  410000   0.99767586   -4.5951808   -4.5951808     -3.09867  0.063886033   -4.5951808    1.4965108      1024000 
  411000   0.99663047    -4.594698    -4.594698   -3.0997553  0.066222476    -4.594698    1.4949427      1024000 
  412000   0.99757464   -4.5957926   -4.5957926   -3.0994336  0.064291904   -4.5957926     1.496359      1024000 
  413000   0.99862412   -4.5955312   -4.5955312    -3.097598  0.064937166   -4.5955312    1.4979332      1024000 
  414000   0.99656632   -4.5928968   -4.5928968   -3.0980503  0.069455248   -4.5928968    1.4948465      1024000 
  415000   0.99751561   -4.5933912   -4.5933912   -3.0971208  0.067126191   -4.5933912    1.4962704      1024000 
  416000   0.99978908   -4.5976499   -4.5976499   -3.0979692  0.058485576   -4.5976499    1.4996806      1024000 
  417000   0.99844747    -4.594915    -4.594915   -3.0972467  0.067773721    -4.594915    1.4976682      1024000 
  418000   0.99884037    -4.596683    -4.596683   -3.0984254  0.067306797    -4.596683    1.4982576      1024000 
  419000   0.99905774   -4.5967364   -4.5967364   -3.0981528  0.064040643   -4.5967364    1.4985836      1024000 
  420000   0.99852489   -4.5969683   -4.5969683    -3.099184  0.067163692   -4.5969683    1.4977843      1024000 
  421000    0.9978001   -4.5964037   -4.5964037   -3.0997066  0.070940918   -4.5964037    1.4966972      1024000 
  422000   0.99800528    -4.595632    -4.595632   -3.0986271  0.070315332    -4.595632    1.4970049      1024000 
  423000   0.99793214   -4.5962922   -4.5962922    -3.099397  0.069343468   -4.5962922    1.4968952      1024000 
  424000   0.99779939   -4.5960479   -4.5960479   -3.0993518  0.071401389   -4.5960479    1.4966961      1024000 
  425000   0.99770178   -4.5961784   -4.5961784   -3.0996287  0.062611026   -4.5961784    1.4965497      1024000 
  426000   0.99745825   -4.5961099   -4.5961099   -3.0999256  0.062437863   -4.5961099    1.4961844      1024000 
  427000   0.99676249   -4.5964197   -4.5964197    -3.101279  0.066496108   -4.5964197    1.4951407      1024000 
  428000   0.99806725   -4.5957797   -4.5957797   -3.0986818  0.072147808   -4.5957797    1.4970979      1024000 
  429000   0.99753888   -4.5954598   -4.5954598   -3.0991544   0.06801996   -4.5954598    1.4963053      1024000 
  430000    0.9982508   -4.5964721   -4.5964721   -3.0990989  0.068878197   -4.5964721    1.4973732      1024000 
  431000   0.99732342   -4.5974437   -4.5974437   -3.1014615  0.063326901   -4.5974437    1.4959821      1024000 
  432000   0.99580814   -4.5958927   -4.5958927   -3.1021835  0.064280504   -4.5958927    1.4937092      1024000 
  433000    0.9954153   -4.5943255   -4.5943255   -3.1012055  0.066833617   -4.5943255      1.49312      1024000 
  434000   0.99745475   -4.5955015   -4.5955015   -3.0993224  0.072955725   -4.5955015    1.4961791      1024000 
  435000   0.99706584   -4.5970356   -4.5970356   -3.1014399  0.065870011   -4.5970356    1.4955958      1024000 
  436000   0.99790616   -4.5968909   -4.5968909   -3.1000347  0.061643636   -4.5968909    1.4968562      1024000 
  437000   0.99761614   -4.5968472   -4.5968472    -3.100426  0.069155342   -4.5968472    1.4964212      1024000 
  438000   0.99614054   -4.5957629   -4.5957629   -3.1015551   0.06343655   -4.5957629    1.4942078      1024000 
  439000   0.99588396   -4.5953154   -4.5953154   -3.1014924  0.062426339   -4.5953154    1.4938229      1024000 
  440000   0.99555071   -4.5951363   -4.5951363   -3.1018132  0.063615408   -4.5951363    1.4933231      1024000 
  441000   0.99630483   -4.5951166   -4.5951166   -3.1006624  0.063189501   -4.5951166    1.4944543      1024000 
  442000   0.99665463   -4.5950959   -4.5950959   -3.1001169  0.062662566   -4.5950959    1.4949789      1024000 
  443000   0.99665342   -4.5952091   -4.5952091    -3.100232  0.065297319   -4.5952091    1.4949771      1024000 
  444000    0.9963966   -4.5959521   -4.5959521   -3.1013602  0.061515151   -4.5959521    1.4945919      1024000 
  445000   0.99889601   -4.5970752   -4.5970752   -3.0987341  0.066363249   -4.5970752     1.498341      1024000 
  446000   0.99717178   -4.5936876   -4.5936876   -3.0979329  0.069976475   -4.5936876    1.4957547      1024000 
  447000   0.99711726   -4.5943958   -4.5943958   -3.0987229  0.070652644   -4.5943958    1.4956729      1024000 
  448000   0.99653463   -4.5940792   -4.5940792   -3.0992803   0.06655387   -4.5940792    1.4947989      1024000 
  449000   0.99629071   -4.5936305   -4.5936305   -3.0991974  0.065845563   -4.5936305    1.4944331      1024000 
  450000   0.99714545   -4.5954484   -4.5954484   -3.0997332  0.069832507   -4.5954484    1.4957152      1024000 
  451000   0.99704239    -4.596344    -4.596344   -3.1007834  0.067496325    -4.596344    1.4955606      1024000 
  452000    0.9970367   -4.5953034   -4.5953034   -3.0997513  0.061260802   -4.5953034    1.4955521      1024000 
  453000   0.99699596   -4.5968737   -4.5968737   -3.1013827  0.062065017   -4.5968737    1.4954909      1024000 
  454000   0.99599954   -4.5950418   -4.5950418   -3.1010455  0.069761372   -4.5950418    1.4939963      1024000 
  455000   0.99562243   -4.5942791   -4.5942791   -3.1008484  0.067455496   -4.5942791    1.4934307      1024000 
  456000   0.99574013   -4.5955348   -4.5955348   -3.1019276  0.061579383   -4.5955348    1.4936072      1024000 
  457000   0.99423874   -4.5936808   -4.5936808   -3.1023257  0.067259517   -4.5936808    1.4913551      1024000 
  458000   0.99586346    -4.594148    -4.594148   -3.1003558  0.064769514    -4.594148    1.4937922      1024000 
  459000   0.99748356   -4.5959305   -4.5959305   -3.0997081  0.063076752   -4.5959305    1.4962223      1024000 
  460000   0.99708039   -4.5974539   -4.5974539   -3.1018363  0.060046089   -4.5974539    1.4956176      1024000 
  461000   0.99854278   -4.5968944   -4.5968944   -3.0990832  0.064679188   -4.5968944    1.4978112      1024000 
  462000   0.99806492     -4.59744     -4.59744   -3.1003456  0.065805097     -4.59744    1.4970944      1024000 
  463000   0.99845186    -4.596026    -4.596026   -3.0983513  0.068604417    -4.596026    1.4976748      1024000 
  464000    0.9970907   -4.5969988   -4.5969988   -3.1013658  0.062816972   -4.5969988    1.4956331      1024000 
  465000   0.99728967   -4.5979908   -4.5979908   -3.1020593  0.066145538   -4.5979908    1.4959315      1024000 
  466000   0.99725256   -4.5965633   -4.5965633   -3.1006875  0.069564622   -4.5965633    1.4958759      1024000 
  467000    0.9965549   -4.5992537   -4.5992537   -3.1044244  0.059391054   -4.5992537    1.4948293      1024000 
  468000    0.9977083   -4.5971073   -4.5971073   -3.1005479  0.060506473   -4.5971073    1.4965595      1024000 
  469000   0.99716628   -4.5964303   -4.5964303   -3.1006839  0.065944929   -4.5964303    1.4957464      1024000 
  470000   0.99697403   -4.5956506   -4.5956506   -3.1001926  0.067445696   -4.5956506    1.4954581      1024000 
  471000   0.99711848   -4.5973442   -4.5973442   -3.1016695   0.06608321   -4.5973442    1.4956747      1024000 
  472000   0.99764501   -4.5955594   -4.5955594   -3.0990949  0.067797849   -4.5955594    1.4964645      1024000 
  473000   0.99687103   -4.5968876   -4.5968876    -3.101584  0.067170487   -4.5968876    1.4953036      1024000 
  474000   0.99811206   -4.5964923   -4.5964923   -3.0993272  0.069736128   -4.5964923    1.4971651      1024000 
  475000   0.99863939   -4.5969069   -4.5969069   -3.0989508   0.06518745   -4.5969069    1.4979561      1024000 
  476000   0.99663771   -4.5954407   -4.5954407   -3.1004872   0.06691518   -4.5954407    1.4949536      1024000 
  477000   0.99705724    -4.596312    -4.596312   -3.1007291   0.05650472    -4.596312    1.4955829      1024000 
  478000   0.99446244   -4.5928671   -4.5928671   -3.1011764  0.068265706   -4.5928671    1.4916907      1024000 
  479000   0.99556507   -4.5942477   -4.5942477   -3.1009031  0.068988758   -4.5942477    1.4933446      1024000 
  480000   0.99607329    -4.596105    -4.596105   -3.1019981  0.060287987    -4.596105    1.4941069      1024000 
  481000   0.99603752   -4.5946144   -4.5946144   -3.1005611  0.065597345   -4.5946144    1.4940533      1024000 
  482000   0.99621709   -4.5939481   -4.5939481   -3.0996254  0.063022488   -4.5939481    1.4943226      1024000 
  483000    0.9951575   -4.5934704   -4.5934704   -3.1007372  0.060318999   -4.5934704    1.4927333      1024000 
  484000   0.99597817   -4.5954306   -4.5954306   -3.1014663   0.06063611   -4.5954306    1.4939643      1024000 
  485000   0.99456594   -4.5940327   -4.5940327   -3.1021868  0.061723397   -4.5940327    1.4918459      1024000 
  486000   0.99678991   -4.5959657   -4.5959657   -3.1007838  0.061098204   -4.5959657    1.4951819      1024000 
  487000   0.99620847   -4.5947359   -4.5947359   -3.1004262   0.06919928   -4.5947359    1.4943097      1024000 
  488000    0.9953248   -4.5945208   -4.5945208   -3.1015366  0.066127179   -4.5945208    1.4929842      1024000 
  489000   0.99500094   -4.5963075   -4.5963075   -3.1038091  0.063344908   -4.5963075    1.4924984      1024000 
  490000   0.99666541   -4.5951538   -4.5951538   -3.1001587  0.062896286   -4.5951538    1.4949951      1024000 
  491000   0.99443253    -4.594262    -4.594262   -3.1026162  0.067918296    -4.594262    1.4916458      1024000 
  492000   0.99427275   -4.5938612   -4.5938612   -3.1024551  0.068524956   -4.5938612    1.4914061      1024000 
  493000   0.99454114   -4.5952023   -4.5952023   -3.1033936  0.061463903   -4.5952023    1.4918087      1024000 
  494000   0.99468423   -4.5951859   -4.5951859   -3.1031625  0.064670837   -4.5951859    1.4920234      1024000 
  495000   0.99500504   -4.5973678   -4.5973678   -3.1048632  0.066149381   -4.5973678    1.4925046      1024000 
  496000   0.99395282   -4.5961324   -4.5961324   -3.1052062  0.063007422   -4.5961324    1.4909262      1024000 
  497000   0.99502666   -4.5976274   -4.5976274   -3.1050904  0.065425354   -4.5976274     1.492537      1024000 
  498000   0.99531836   -4.5960927   -4.5960927   -3.1031181  0.068197403   -4.5960927    1.4929745      1024000 
  499000   0.99680721   -4.5982981   -4.5982981   -3.1030903  0.061735788   -4.5982981    1.4952078      1024000 
  500000   0.99662406   -4.5985559   -4.5985559   -3.1036228  0.067156009   -4.5985559    1.4949331      1024000 
  501000   0.99688095   -4.5999415   -4.5999415   -3.1046231  0.067098473   -4.5999415    1.4953184      1024000 
  502000   0.99732745    -4.598773    -4.598773   -3.1027848  0.072363434    -4.598773    1.4959882      1024000 
  503000   0.99770855   -4.5993632   -4.5993632   -3.1028034  0.067485781   -4.5993632    1.4965598      1024000 
  504000   0.99724264   -4.5987237   -4.5987237   -3.1028628  0.068935071   -4.5987237     1.495861      1024000 
  505000   0.99638673   -4.5984852   -4.5984852   -3.1039081  0.069285228   -4.5984852    1.4945771      1024000 
  506000   0.99637553   -4.5982382   -4.5982382   -3.1036779  0.068936242   -4.5982382    1.4945603      1024000 
  507000   0.99477107   -4.5975217   -4.5975217    -3.105368  0.069444951   -4.5975217    1.4921536      1024000 
  508000   0.99514923   -4.5970914   -4.5970914   -3.1043706  0.070643439   -4.5970914    1.4927209      1024000 
  509000   0.99480602    -4.597194    -4.597194   -3.1049879  0.076279489    -4.597194     1.492206      1024000 
  510000   0.99503281   -4.5988361   -4.5988361   -3.1062898  0.066640434   -4.5988361    1.4925462      1024000 
  511000   0.99544779   -4.5978164   -4.5978164   -3.1046477  0.067851147   -4.5978164    1.4931687      1024000 
  512000   0.99616204   -4.6001016   -4.6001016   -3.1058615  0.064960161   -4.6001016    1.4942401      1024000 
  513000   0.99535275   -4.6009525   -4.6009525   -3.1079264  0.061260151   -4.6009525    1.4930261      1024000 
  514000   0.99530297   -4.5990639   -4.5990639   -3.1061124  0.065892979   -4.5990639    1.4929515      1024000 
  515000   0.99607503   -4.5992304   -4.5992304   -3.1051209  0.067318067   -4.5992304    1.4941096      1024000 
  516000   0.99532172    -4.599048    -4.599048   -3.1060684  0.065936424    -4.599048    1.4929796      1024000 
  517000   0.99478368   -4.5985361   -4.5985361   -3.1063635  0.065670991   -4.5985361    1.4921725      1024000 
  518000   0.99592714   -4.5999682   -4.5999682   -3.1060805  0.065867698   -4.5999682    1.4938877      1024000 
  519000   0.99579346   -4.5999082   -4.5999082    -3.106221   0.06328226   -4.5999082    1.4936872      1024000 
  520000   0.99541048   -4.5992982   -4.5992982   -3.1061854  0.066624976   -4.5992982    1.4931127      1024000 
  521000   0.99472565   -4.5997289   -4.5997289   -3.1076434  0.066201671   -4.5997289    1.4920855      1024000 
  522000     0.994271   -4.5994294   -4.5994294   -3.1080258  0.066473008   -4.5994294    1.4914035      1024000 
  523000   0.99460831   -4.5977263   -4.5977263   -3.1058168  0.069772495   -4.5977263    1.4919095      1024000 
  524000   0.99487596     -4.59799     -4.59799    -3.105679  0.065263786     -4.59799     1.492311      1024000 
  525000   0.99518758   -4.5987401   -4.5987401   -3.1059617  0.068239813   -4.5987401    1.4927784      1024000 
  526000   0.99528828   -4.5987639   -4.5987639   -3.1058345  0.065831172   -4.5987639    1.4929294      1024000 
  527000   0.99520084   -4.5979866   -4.5979866   -3.1051883  0.062125426   -4.5979866    1.4927983      1024000 
  528000   0.99416353   -4.5972405   -4.5972405   -3.1059981  0.068749804   -4.5972405    1.4912423      1024000 
  529000   0.99597745    -4.599993    -4.599993   -3.1060298  0.063332373    -4.599993    1.4939632      1024000 
  530000   0.99588328   -4.5990043   -4.5990043   -3.1051824  0.065686924   -4.5990043    1.4938219      1024000 
  531000   0.99736101   -4.6008652   -4.6008652   -3.1048267  0.066907928   -4.6008652    1.4960385      1024000 
  532000   0.99448504   -4.5983661   -4.5983661   -3.1066415  0.063316441   -4.5983661    1.4917246      1024000 
  533000   0.99556967   -4.6000655   -4.6000655    -3.106714  0.063279208   -4.6000655    1.4933515      1024000 
  534000   0.99539281   -4.5998625   -4.5998625   -3.1067763  0.059413267   -4.5998625    1.4930862      1024000 
  535000   0.99507014   -4.6000358   -4.6000358   -3.1074336  0.065139111   -4.6000358    1.4926022      1024000 
  536000   0.99409555   -4.6000331   -4.6000331   -3.1088928  0.064996414   -4.6000331    1.4911403      1024000 
  537000   0.99345488   -4.5989078   -4.5989078   -3.1087285  0.068498406   -4.5989078    1.4901793      1024000 
  538000   0.99462487   -4.6011186   -4.6011186   -3.1091842  0.060317211   -4.6011186    1.4919343      1024000 
  539000   0.99346857   -4.6013187   -4.6013187   -3.1111188   0.06088482   -4.6013187    1.4901999      1024000 
  540000   0.99405319   -4.6003039   -4.6003039   -3.1092271  0.062819358   -4.6003039    1.4910768      1024000 
  541000   0.99442939   -4.5998389   -4.5998389   -3.1081979   0.06920046   -4.5998389    1.4916411      1024000 
  542000   0.99606229   -4.6022534   -4.6022534   -3.1081629  0.060766266   -4.6022534    1.4940904      1024000 
  543000   0.99528221   -4.6011519   -4.6011519   -3.1082316  0.068005421   -4.6011519    1.4929203      1024000 
  544000   0.99681023   -4.6011599   -4.6011599   -3.1059476  0.075165537   -4.6011599    1.4952124      1024000 
  545000   0.99700588    -4.603809    -4.603809   -3.1083032  0.071162744    -4.603809    1.4955058      1024000 
  546000   0.99721925   -4.6033975   -4.6033975   -3.1075716  0.070403878   -4.6033975    1.4958259      1024000 
  547000   0.99800244   -4.6039065   -4.6039065   -3.1069059    0.0739659   -4.6039065    1.4970007      1024000 
  548000   0.99650718   -4.6021388   -4.6021388    -3.107381  0.075890571   -4.6021388    1.4947578      1024000 
  549000    0.9970873   -4.6033307   -4.6033307   -3.1077028  0.073588902   -4.6033307     1.495628      1024000 
  550000   0.99533464   -4.6015378   -4.6015378   -3.1085388   0.07356885   -4.6015378     1.492999      1024000 
  551000   0.99730598   -4.6025332   -4.6025332   -3.1065772  0.069991423   -4.6025332     1.495956      1024000 
  552000   0.99584334   -4.6013343   -4.6013343   -3.1075723  0.070530414   -4.6013343     1.493762      1024000 
  553000   0.99545968   -4.5997944   -4.5997944   -3.1066079  0.075521332   -4.5997944    1.4931865      1024000 
  554000   0.99734677   -4.6010922   -4.6010922   -3.1050751  0.069415167   -4.6010922    1.4960172      1024000 
  555000    0.9973669   -4.6036843   -4.6036843   -3.1076369  0.066087773   -4.6036843    1.4960474      1024000 
  556000   0.99691721   -4.6018639   -4.6018639   -3.1064911  0.073813123   -4.6018639    1.4953728      1024000 
  557000   0.99412963   -4.5999036   -4.5999036   -3.1087121  0.069926032   -4.5999036    1.4911915      1024000 
  558000   0.99498983   -4.6002308   -4.6002308    -3.107749  0.073822463   -4.6002308    1.4924818      1024000 
  559000   0.99551999   -4.5993143   -4.5993143   -3.1060373  0.071801824   -4.5993143     1.493277      1024000 
  560000    0.9945226   -4.5993975   -4.5993975   -3.1076166  0.066839761   -4.5993975    1.4917809      1024000 
  561000   0.99658371   -4.5996358   -4.5996358   -3.1047632  0.068434597   -4.5996358    1.4948726      1024000 
  562000   0.99548226   -4.5983362   -4.5983362   -3.1051158  0.066320892   -4.5983362    1.4932204      1024000 
  563000    0.9972515   -4.5989528   -4.5989528   -3.1030785  0.063265647   -4.5989528    1.4958743      1024000 
  564000   0.99765567    -4.599401    -4.599401   -3.1029205  0.059835292    -4.599401    1.4964805      1024000 
  565000   0.99520079   -4.5976139   -4.5976139   -3.1048157    0.0661659   -4.5976139    1.4927982      1024000 
  566000   0.99492148   -4.5979124   -4.5979124   -3.1055332  0.062392114   -4.5979124    1.4923792      1024000 
  567000   0.99489529   -4.5966658   -4.5966658   -3.1043258   0.06024491   -4.5966658    1.4923399      1024000 
  568000   0.99390659   -4.5971768   -4.5971768   -3.1063199  0.061411204   -4.5971768    1.4908569      1024000 
  569000   0.99495654   -4.5962742   -4.5962742   -3.1038423  0.064169442   -4.5962742    1.4924318      1024000 
  570000   0.99444208   -4.5960768   -4.5960768   -3.1044167   0.06353342   -4.5960768    1.4916601      1024000 
  571000   0.99546494   -4.5966284   -4.5966284    -3.103434  0.063201892   -4.5966284    1.4931944      1024000 
  572000   0.99352995    -4.596439    -4.596439   -3.1061471  0.059007669    -4.596439    1.4902919      1024000 
  573000    0.9944592   -4.5958954   -4.5958954   -3.1042096  0.062313949   -4.5958954    1.4916858      1024000 
  574000   0.99355297   -4.5966041   -4.5966041   -3.1062776  0.061984931   -4.5966041    1.4903265      1024000 
  575000   0.99316145   -4.5951234   -4.5951234   -3.1053842  0.064400194   -4.5951234    1.4897392      1024000 
  576000   0.99259392   -4.5956188   -4.5956188   -3.1067309  0.057632473   -4.5956188    1.4888879      1024000 
  577000   0.99311092   -4.5968186   -4.5968186   -3.1071552   0.06245125   -4.5968186    1.4896634      1024000 
  578000   0.99334355   -4.5972212   -4.5972212   -3.1072089  0.059491558   -4.5972212    1.4900123      1024000 
  579000   0.99429045   -4.5974842   -4.5974842   -3.1060515  0.057085763   -4.5974842    1.4914327      1024000 
  580000   0.99416321   -4.5984023   -4.5984023   -3.1071605  0.063846755   -4.5984023    1.4912418      1024000 
  581000   0.99439104   -4.5962597   -4.5962597   -3.1046762  0.074631633   -4.5962597    1.4915836      1024000 
  582000   0.99591134   -4.5995192   -4.5995192   -3.1056552  0.068638685   -4.5995192     1.493864      1024000 
  583000    0.9959303   -4.6006141   -4.6006141   -3.1067216  0.067958918   -4.6006141    1.4938925      1024000 
  584000    0.9959911   -4.5999167   -4.5999167    -3.105933  0.072046955   -4.5999167    1.4939837      1024000 
  585000   0.99809879   -4.6023908   -4.6023908   -3.1052456  0.069208894   -4.6023908    1.4971452      1024000 
  586000   0.99888802   -4.6038246   -4.6038246   -3.1054955  0.072412483   -4.6038246     1.498329      1024000 
  587000   0.99881688   -4.6018342   -4.6018342   -3.1036119  0.080483736   -4.6018342    1.4982223      1024000 
  588000   0.99851258   -4.6029455   -4.6029455   -3.1051797  0.072558876   -4.6029455    1.4977659      1024000 
  589000   0.99787025    -4.603421    -4.603421   -3.1066187  0.069512166    -4.603421    1.4968024      1024000 
  590000   0.99707101   -4.6013484   -4.6013484   -3.1057449  0.075385863   -4.6013484    1.4956035      1024000 
  591000   0.99676507   -4.6029334   -4.6029334   -3.1077888   0.07203171   -4.6029334    1.4951446      1024000 
  592000   0.99663231   -4.6025107   -4.6025107   -3.1075653     0.067835   -4.6025107    1.4949455      1024000 
  593000   0.99673899   -4.6026443   -4.6026443   -3.1075388  0.068536747   -4.6026443    1.4951055      1024000 
  594000   0.99742795   -4.6032376   -4.6032376   -3.1070987  0.072064423   -4.6032376    1.4961389      1024000 
  595000   0.99644723   -4.6005091   -4.6005091   -3.1058412  0.076246274   -4.6005091    1.4946679      1024000 
  596000   0.99521226   -4.6021866   -4.6021866   -3.1093713  0.071951349   -4.6021866    1.4928154      1024000 
  597000   0.99657826   -4.6015725   -4.6015725   -3.1067081  0.073914823   -4.6015725    1.4948644      1024000 
  598000   0.99522811   -4.6010058   -4.6010058   -3.1081666  0.070699577   -4.6010058    1.4928392      1024000 
  599000   0.99566238   -4.6005278   -4.6005278   -3.1070373  0.069653268   -4.6005278    1.4934906      1024000 
  600000   0.99457084   -4.6000153   -4.6000153   -3.1081621  0.066423769   -4.6000153    1.4918533      1024000 
  601000   0.99570693   -4.6010914   -4.6010914    -3.107534  0.067592414   -4.6010914    1.4935574      1024000 
  602000   0.99560977   -4.5990081   -4.5990081   -3.1055965  0.070986782   -4.5990081    1.4934117      1024000 
  603000    0.9949754   -4.6008913   -4.6008913   -3.1084312   0.06261383   -4.6008913    1.4924601      1024000 
  604000   0.99359154    -4.598383    -4.598383   -3.1079987  0.066140019    -4.598383    1.4903843      1024000 
  605000   0.99511102   -4.6000815   -4.6000815   -3.1074179  0.064624548   -4.6000815    1.4926635      1024000 
  606000   0.99527133   -4.5983652   -4.5983652   -3.1054612  0.069228274   -4.5983652     1.492904      1024000 
  607000    0.9954345   -4.5986896   -4.5986896   -3.1055408  0.066403883   -4.5986896    1.4931488      1024000 
  608000   0.99427147   -4.5977749   -4.5977749   -3.1063707  0.067495963   -4.5977749    1.4914042      1024000 
  609000   0.99527967   -4.5986858   -4.5986858   -3.1057692  0.062845856   -4.5986858    1.4929165      1024000 
  610000   0.99509745   -4.5997808   -4.5997808   -3.1071377  0.059680323   -4.5997808    1.4926432      1024000 
  611000   0.99401135   -4.5988273   -4.5988273   -3.1078132  0.067938814   -4.5988273     1.491014      1024000 
  612000   0.99482368   -4.5988791   -4.5988791   -3.1066465  0.061635644   -4.5988791    1.4922325      1024000 
  613000   0.99429942    -4.597604    -4.597604   -3.1061578  0.062303039    -4.597604    1.4914461      1024000 
  614000   0.99569559   -4.5987688   -4.5987688   -3.1052284  0.063717286   -4.5987688    1.4935404      1024000 
  615000   0.99448442   -4.5969911   -4.5969911   -3.1052674  0.069118387   -4.5969911    1.4917236      1024000 
  616000   0.99513472   -4.5979895   -4.5979895   -3.1052904  0.071088886   -4.5979895    1.4926991      1024000 
  617000   0.99458153   -4.5979288   -4.5979288   -3.1060595  0.074129286   -4.5979288    1.4918693      1024000 
  618000   0.99600444   -4.5989143   -4.5989143   -3.1049106  0.068659857   -4.5989143    1.4940037      1024000 
  619000    0.9961829      -4.6005      -4.6005   -3.1062286  0.068332088      -4.6005    1.4942714      1024000 
  620000   0.99570871   -4.6005359   -4.6005359   -3.1069759  0.065145869   -4.6005359    1.4935601      1024000 
  621000   0.99341625   -4.5993336   -4.5993336   -3.1092122  0.070633385   -4.5993336    1.4901214      1024000 
  622000   0.99676541   -4.6012114   -4.6012114   -3.1060663  0.065236938   -4.6012114    1.4951451      1024000 
  623000   0.99608111     -4.60023     -4.60023   -3.1061113  0.074665305     -4.60023    1.4941187      1024000 
  624000   0.99462912   -4.6009629   -4.6009629   -3.1090222  0.067362818   -4.6009629    1.4919407      1024000 
  625000   0.99611196   -4.6027554   -4.6027554   -3.1085904  0.067340166   -4.6027554    1.4941649      1024000 
  626000   0.99508106   -4.6016499   -4.6016499   -3.1090313  0.072509326   -4.6016499    1.4926186      1024000 
  627000   0.99565362   -4.6029713   -4.6029713   -3.1094939  0.064922715   -4.6029713    1.4934774      1024000 
  628000   0.99602735   -4.6017488   -4.6017488   -3.1077108  0.065988936   -4.6017488     1.494038      1024000 
  629000   0.99546502   -4.6021429   -4.6021429   -3.1089483  0.070912844   -4.6021429    1.4931945      1024000 
  630000   0.99530095   -4.6018366   -4.6018366   -3.1088881  0.070972364   -4.6018366    1.4929484      1024000 
  631000   0.99548642   -4.6038279   -4.6038279   -3.1106013  0.066955137   -4.6038279    1.4932266      1024000 
  632000    0.9938542   -4.6032111   -4.6032111   -3.1124328  0.069740196   -4.6032111    1.4907783      1024000 
  633000    0.9954882    -4.602252    -4.602252   -3.1090227  0.070468503    -4.602252    1.4932293      1024000 
  634000   0.99477245   -4.6019328   -4.6019328   -3.1097771  0.072929791   -4.6019328    1.4921557      1024000 
  635000   0.99597701   -4.6031252   -4.6031252   -3.1091627  0.074949807   -4.6031252    1.4939625      1024000 
  636000   0.99545911   -4.6015775   -4.6015775   -3.1083919  0.072021546   -4.6015775    1.4931857      1024000 
  637000   0.99575753   -4.6009432   -4.6009432   -3.1073098  0.073924745   -4.6009432    1.4936333      1024000 
  638000   0.99648486   -4.6042302   -4.6042302    -3.109506  0.068138451   -4.6042302    1.4947243      1024000 
  639000   0.99602003     -4.60261     -4.60261    -3.108583  0.071573528     -4.60261    1.4940271      1024000 
  640000   0.99580011   -4.6013762   -4.6013762   -3.1076791  0.080099471   -4.6013762    1.4936972      1024000 
  641000   0.99558415   -4.6028951   -4.6028951   -3.1095218  0.071905532   -4.6028951    1.4933732      1024000 
  642000   0.99707377   -4.6041212   -4.6041212   -3.1085135   0.07243474   -4.6041212    1.4956077      1024000 
  643000   0.99721619   -4.6050656   -4.6050656   -3.1092443  0.070626787   -4.6050656    1.4958213      1024000 
  644000   0.99596202   -4.6020413   -4.6020413   -3.1081013  0.074467523   -4.6020413      1.49394      1024000 
  645000   0.99403681   -4.6004418   -4.6004418   -3.1093896  0.072257915   -4.6004418    1.4910522      1024000 
  646000   0.99475769   -4.5999408   -4.5999408   -3.1078072  0.068646402   -4.5999408    1.4921335      1024000 
  647000   0.99438512   -4.5997727   -4.5997727    -3.108198  0.067848147   -4.5997727    1.4915747      1024000 
  648000   0.99408067   -4.5986955   -4.5986955   -3.1075775  0.067418961   -4.5986955     1.491118      1024000 
  649000    0.9949818   -4.6003639   -4.6003639   -3.1078942  0.063090271   -4.6003639    1.4924697      1024000 
  650000   0.99446859   -4.6002109   -4.6002109    -3.108511  0.068773428   -4.6002109    1.4916999      1024000 
  651000   0.99442692   -4.5999449   -4.5999449   -3.1083075  0.062061913   -4.5999449    1.4916374      1024000 
  652000   0.99420338   -4.6014091   -4.6014091    -3.110107  0.062183388   -4.6014091    1.4913021      1024000 
  653000   0.99271145   -4.5984896   -4.5984896   -3.1094254  0.069573328   -4.5984896    1.4890642      1024000 
  654000   0.99480701   -4.6008981   -4.6008981   -3.1086905  0.067682549   -4.6008981    1.4922075      1024000 
  655000   0.99541203   -4.5998719   -4.5998719   -3.1067568  0.068752921   -4.5998719    1.4931151      1024000 
  656000   0.99492921    -4.599236    -4.599236   -3.1068452   0.06568053    -4.599236    1.4923908      1024000 
  657000   0.99425494   -4.6014942   -4.6014942   -3.1101147  0.060411686   -4.6014942    1.4913794      1024000 
  658000   0.99389347   -4.5997131   -4.5997131   -3.1088758  0.065851699   -4.5997131    1.4908372      1024000 
  659000   0.99279901   -4.5981685   -4.5981685    -3.108973    0.0664151   -4.5981685    1.4891955      1024000 
  660000   0.99388809   -4.5985273   -4.5985273   -3.1076981  0.066621911   -4.5985273    1.4908291      1024000 
  661000   0.99426381   -4.6003719   -4.6003719   -3.1089792  0.062331125   -4.6003719    1.4913927      1024000 
  662000   0.99435102   -4.5977979   -4.5977979   -3.1062744  0.065847337   -4.5977979    1.4915235      1024000 
  663000     0.993656   -4.5989159   -4.5989159   -3.1084349  0.065868674   -4.5989159     1.490481      1024000 
  664000   0.99416832   -4.5986827   -4.5986827   -3.1074332  0.068902739   -4.5986827    1.4912495      1024000 
  665000   0.99493782   -4.6006342   -4.6006342   -3.1082304  0.064472306   -4.6006342    1.4924037      1024000 
  666000    0.9953911   -4.6001671   -4.6001671   -3.1070834  0.072704126   -4.6001671    1.4930837      1024000 
  667000   0.99612212   -4.6008344   -4.6008344   -3.1066542  0.071408549   -4.6008344    1.4941802      1024000 
  668000   0.99490766   -4.6012602   -4.6012602   -3.1089017  0.070372337   -4.6012602    1.4923585      1024000 
  669000   0.99662344   -4.6029893   -4.6029893   -3.1080571  0.072837464   -4.6029893    1.4949322      1024000 
  670000   0.99809955   -4.6034905   -4.6034905   -3.1063442  0.074518657   -4.6034905    1.4971463      1024000 
  671000   0.99557896   -4.6021812   -4.6021812   -3.1088157  0.070453386   -4.6021812    1.4933654      1024000 
  672000    0.9972991    -4.603805    -4.603805   -3.1078593  0.066757917    -4.603805    1.4959457      1024000 
  673000    0.9940114   -4.5993186   -4.5993186   -3.1083045  0.076013593   -4.5993186    1.4910141      1024000 
  674000   0.99490199   -4.6008594   -4.6008594   -3.1085094   0.07268551   -4.6008594      1.49235      1024000 
  675000   0.99554517   -4.6028885   -4.6028885   -3.1095737  0.072239942   -4.6028885    1.4933148      1024000 
  676000   0.99566279   -4.6036492   -4.6036492    -3.110158  0.072924907   -4.6036492    1.4934912      1024000 
  677000   0.99488414   -4.6027527   -4.6027527   -3.1104294  0.074043767   -4.6027527    1.4923232      1024000 
  678000   0.99521254    -4.603642    -4.603642   -3.1108262  0.072896643    -4.603642    1.4928158      1024000 
  679000   0.99494749   -4.6030095   -4.6030095   -3.1105912  0.075648227   -4.6030095    1.4924182      1024000 
  680000   0.99594991   -4.6036358   -4.6036358   -3.1097139  0.071906077   -4.6036358    1.4939219      1024000 
  681000   0.99657253   -4.6042726   -4.6042726   -3.1094168  0.071203477   -4.6042726    1.4948558      1024000 
  682000   0.99529675   -4.6030359   -4.6030359   -3.1100937  0.071173452   -4.6030359    1.4929421      1024000 
  683000    0.9952864   -4.6031171   -4.6031171   -3.1101905  0.073421392   -4.6031171    1.4929266      1024000 
  684000   0.99431411   -4.6032732   -4.6032732    -3.111805  0.064641999   -4.6032732    1.4914682      1024000 
[...]
  837000   0.99508634   -4.5997744   -4.5997744   -3.1071479  0.076249546   -4.5997744    1.4926265      1024000 
  838000   0.99459641   -4.6005869   -4.6005869   -3.1086953  0.073455957   -4.6005869    1.4918916      1024000 
  839000   0.99380087   -4.5985192   -4.5985192   -3.1078209  0.075101481   -4.5985192    1.4906983      1024000 
  840000    0.9936307    -4.598297    -4.598297    -3.107854  0.072269418    -4.598297    1.4904431      1024000 
  841000   0.99384699   -4.5986954   -4.5986954   -3.1079279  0.068736606   -4.5986954    1.4907675      1024000 
  842000   0.99490249   -4.6000119   -4.6000119   -3.1076612  0.062796462   -4.6000119    1.4923507      1024000 
  843000    0.9940401   -4.5989725   -4.5989725   -3.1079153  0.066332365   -4.5989725    1.4910572      1024000 
  844000   0.99391922    -4.598173    -4.598173   -3.1072972  0.067889192    -4.598173    1.4908758      1024000 
  845000   0.99239504   -4.5965533   -4.5965533   -3.1079637  0.069977094   -4.5965533    1.4885896      1024000 
  846000   0.99379537   -4.5984602   -4.5984602   -3.1077701  0.072504533   -4.5984602    1.4906901      1024000 
  847000   0.99389187   -4.5990575   -4.5990575   -3.1082227  0.075451997   -4.5990575    1.4908348      1024000 
  848000    0.9955318    -4.598554    -4.598554   -3.1052593  0.069981309    -4.598554    1.4932947      1024000 
  849000   0.99399382   -4.5976813   -4.5976813   -3.1066936  0.070503342   -4.5976813    1.4909877      1024000 
  850000   0.99424267   -4.5998138   -4.5998138   -3.1084528  0.062477946   -4.5998138     1.491361      1024000 
  851000   0.99462571   -4.5987273   -4.5987273   -3.1067917  0.067610984   -4.5987273    1.4919356      1024000 
  852000   0.99525175   -4.5995649   -4.5995649   -3.1066903  0.068105963   -4.5995649    1.4928746      1024000 
  853000   0.99391895   -4.5981987   -4.5981987   -3.1073233  0.067169092   -4.5981987    1.4908754      1024000 
  854000   0.99447122     -4.59852     -4.59852   -3.1068161  0.069450129     -4.59852    1.4917038      1024000 
  855000   0.99519161   -4.6003591   -4.6003591   -3.1075747  0.064222737   -4.6003591    1.4927844      1024000 
  856000    0.9954391   -4.6003044   -4.6003044   -3.1071488  0.064904741   -4.6003044    1.4931557      1024000 
  857000   0.99417774   -4.5978859   -4.5978859   -3.1066223  0.069528727   -4.5978859    1.4912636      1024000 
  858000   0.99407331   -4.5977674   -4.5977674   -3.1066604  0.065004884   -4.5977674     1.491107      1024000 
  859000   0.99409722   -4.5983858   -4.5983858   -3.1072429  0.070353663   -4.5983858    1.4911428      1024000 
  860000   0.99578454   -4.6002488   -4.6002488   -3.1065749  0.065880146   -4.6002488    1.4936738      1024000 
  861000   0.99549608    -4.600902    -4.600902   -3.1076608   0.06455675    -4.600902    1.4932411      1024000 
  862000   0.99327266   -4.5976008   -4.5976008   -3.1076948  0.070309116   -4.5976008     1.489906      1024000 
  863000   0.99388912     -4.59742     -4.59742   -3.1065893  0.077204042     -4.59742    1.4908307      1024000 
  864000   0.99483663   -4.6007307   -4.6007307   -3.1084787   0.06326826   -4.6007307     1.492252      1024000 
  865000   0.99408803   -4.5997102   -4.5997102   -3.1085811  0.066736521   -4.5997102    1.4911291      1024000 
  866000   0.99390458   -4.5988838   -4.5988838     -3.10803  0.066636865   -4.5988838    1.4908539      1024000 
  867000   0.99356061   -4.5982001   -4.5982001   -3.1078622  0.070440927   -4.5982001    1.4903379      1024000 
  868000   0.99512426   -4.6011169   -4.6011169   -3.1084335  0.065938807   -4.6011169    1.4926834      1024000 
  869000   0.99530368   -4.6003832   -4.6003832   -3.1074307  0.072552811   -4.6003832    1.4929525      1024000 
  870000   0.99476622   -4.6007407   -4.6007407   -3.1085943  0.066285407   -4.6007407    1.4921463      1024000 
  871000   0.99492499   -4.6008087   -4.6008087   -3.1084242  0.072427063   -4.6008087    1.4923845      1024000 
  872000   0.99661722   -4.6020264   -4.6020264   -3.1071036  0.069091692   -4.6020264    1.4949228      1024000 
  873000   0.99440803   -4.5992119   -4.5992119   -3.1076029  0.072243237   -4.5992119    1.4916091      1024000 
  874000   0.99543922   -4.6018218   -4.6018218   -3.1086659  0.071747201   -4.6018218    1.4931558      1024000 
  875000   0.99435994   -4.5997416   -4.5997416   -3.1082047  0.070987148   -4.5997416    1.4915369      1024000 
  876000   0.99526838   -4.6016271   -4.6016271   -3.1087275   0.07235939   -4.6016271    1.4928996      1024000 
  877000   0.99571621   -4.6033782   -4.6033782   -3.1098069  0.065364714   -4.6033782    1.4935713      1024000 
  878000    0.9949017   -4.6007372   -4.6007372   -3.1083877  0.076397645   -4.6007372    1.4923496      1024000 
  879000   0.99607189   -4.6036773   -4.6036773   -3.1095725  0.071398969   -4.6036773    1.4941048      1024000 
  880000   0.99458076   -4.6023745   -4.6023745   -3.1105063  0.070068863   -4.6023745    1.4918682      1024000 
  881000   0.99471022   -4.6028578   -4.6028578   -3.1107955  0.072813376   -4.6028578    1.4920623      1024000 
  882000   0.99489268   -4.6010555   -4.6010555   -3.1087195   0.07469788   -4.6010555     1.492336      1024000 
  883000   0.99547952   -4.6018958   -4.6018958   -3.1086795  0.075909927   -4.6018958    1.4932163      1024000 
  884000   0.99526868   -4.6019696   -4.6019696   -3.1090695   0.07463999   -4.6019696       1.4929      1024000 
  885000   0.99436426   -4.6016416   -4.6016416   -3.1100982  0.070409716   -4.6016416    1.4915434      1024000 
  886000   0.99490356   -4.6002974   -4.6002974    -3.107945  0.072397253   -4.6002974    1.4923523      1024000 
  887000   0.99355611   -4.5998747   -4.5998747   -3.1095436  0.071167892   -4.5998747    1.4903312      1024000 
  888000   0.99479591    -4.601648    -4.601648   -3.1094571  0.070818315    -4.601648    1.4921909      1024000 
  889000   0.99642304   -4.6020468   -4.6020468   -3.1074152   0.07294639   -4.6020468    1.4946316      1024000 
  890000   0.99619404   -4.6017809   -4.6017809   -3.1074929  0.074726734   -4.6017809    1.4942881      1024000 
  891000   0.99495219   -4.6011354   -4.6011354   -3.1087101  0.067077602   -4.6011354    1.4924253      1024000 
  892000   0.99504448   -4.5992009   -4.5992009   -3.1066372  0.074746954   -4.5992009    1.4925637      1024000 
  893000   0.99564342   -4.6006719   -4.6006719   -3.1072097  0.065770185   -4.6006719    1.4934621      1024000 
  894000   0.99509154   -4.5990266   -4.5990266   -3.1063923  0.073727665   -4.5990266    1.4926343      1024000 
  895000   0.99450307   -4.5995741   -4.5995741   -3.1078224  0.073289967   -4.5995741    1.4917516      1024000 
  896000   0.99459854   -4.5986049   -4.5986049   -3.1067101  0.072487432   -4.5986049    1.4918948      1024000 
  897000   0.99470759   -4.5995339   -4.5995339   -3.1074755  0.071736065   -4.5995339    1.4920584      1024000 
  898000   0.99373639   -4.5990972   -4.5990972   -3.1084956  0.072033847   -4.5990972    1.4906016      1024000 
  899000   0.99466494   -4.5994089   -4.5994089   -3.1074145  0.066166244   -4.5994089    1.4919944      1024000 
  900000     0.994552   -4.5987199   -4.5987199   -3.1068949  0.066997434   -4.5987199     1.491825      1024000 
  901000   0.99357935   -4.5983187   -4.5983187   -3.1079527  0.061228278   -4.5983187     1.490366      1024000 
  902000   0.99269099   -4.5967094   -4.5967094   -3.1076759  0.070296672   -4.5967094    1.4890335      1024000 
  903000   0.99412057   -4.5980633   -4.5980633   -3.1068855  0.069402946   -4.5980633    1.4911779      1024000 
  904000   0.99510968   -4.5978366   -4.5978366    -3.105175  0.067514862   -4.5978366    1.4926615      1024000 
  905000   0.99474938   -4.5981059   -4.5981059   -3.1059848  0.068068942   -4.5981059    1.4921211      1024000 
  906000   0.99503809   -4.5973448   -4.5973448   -3.1047907  0.068360089   -4.5973448    1.4925541      1024000 
  907000   0.99533236   -4.5965834   -4.5965834   -3.1035879  0.067498685   -4.5965834    1.4929956      1024000 
  908000   0.99493269    -4.598722    -4.598722   -3.1063259  0.059427266    -4.598722     1.492396      1024000 
  909000    0.9950909   -4.5975125   -4.5975125   -3.1048791  0.061792662   -4.5975125    1.4926334      1024000 
  910000    0.9949898   -4.5961119   -4.5961119   -3.1036302  0.070144592   -4.5961119    1.4924817      1024000 
  911000   0.99597017    -4.597399    -4.597399   -3.1034468  0.062532484    -4.597399    1.4939523      1024000 
  912000   0.99453164   -4.5978938   -4.5978938   -3.1060994  0.065058687   -4.5978938    1.4917945      1024000 
  913000   0.99347657   -4.5947572   -4.5947572   -3.1045454  0.071493175   -4.5947572    1.4902119      1024000 
  914000   0.99495954    -4.596209    -4.596209   -3.1037726    0.0662897    -4.596209    1.4924363      1024000 
  915000   0.99382832   -4.5966338   -4.5966338   -3.1058943  0.064374244   -4.5966338    1.4907395      1024000 
  916000   0.99426422   -4.5960318   -4.5960318   -3.1046385  0.062037268   -4.5960318    1.4913933      1024000 
  917000   0.99415653   -4.5958582   -4.5958582   -3.1046264  0.067876689   -4.5958582    1.4912318      1024000 
  918000   0.99447598   -4.5959031   -4.5959031   -3.1041921  0.068535655   -4.5959031     1.491711      1024000 
  919000   0.99425418   -4.5954141   -4.5954141   -3.1040358  0.070805761   -4.5954141    1.4913783      1024000 
  920000   0.99539674   -4.5978452   -4.5978452   -3.1047531  0.061378203   -4.5978452    1.4930921      1024000 
  921000   0.99500765   -4.5955402   -4.5955402   -3.1030317  0.068035044   -4.5955402    1.4925085      1024000 
  922000   0.99491545   -4.5956493   -4.5956493   -3.1032792  0.069627282   -4.5956493    1.4923702      1024000 
  923000   0.99402844   -4.5959447   -4.5959447   -3.1049051  0.071745959   -4.5959447    1.4910397      1024000 
  924000   0.99409656   -4.5965846   -4.5965846   -3.1054427  0.068416501   -4.5965846    1.4911419      1024000 
  925000   0.99586543   -4.5976589   -4.5976589   -3.1038637  0.064244166   -4.5976589    1.4937951      1024000 
  926000   0.99477581   -4.5967207   -4.5967207     -3.10456  0.069859705   -4.5967207    1.4921607      1024000 
  927000   0.99432014   -4.5957002   -4.5957002    -3.104223  0.073893411   -4.5957002    1.4914772      1024000 
  928000   0.99384425   -4.5972941   -4.5972941   -3.1065307  0.068612193   -4.5972941    1.4907634      1024000 
  929000   0.99394745   -4.5960609   -4.5960609   -3.1051427  0.070539334   -4.5960609    1.4909182      1024000 
  930000   0.99487181    -4.597012    -4.597012   -3.1047073  0.067990334    -4.597012    1.4923047      1024000 
  931000   0.99466004   -4.5984777   -4.5984777   -3.1064907  0.064367557   -4.5984777    1.4919871      1024000 
  932000   0.99501735   -4.5967413   -4.5967413   -3.1042183  0.071569197   -4.5967413     1.492523      1024000 
  933000   0.99528784   -4.5973764   -4.5973764   -3.1044477  0.065993289   -4.5973764    1.4929288      1024000 
  934000   0.99515442    -4.598039    -4.598039   -3.1053103   0.06714601    -4.598039    1.4927286      1024000 
  935000    0.9961636   -4.5982419   -4.5982419   -3.1039995  0.073227895   -4.5982419    1.4942424      1024000 
  936000   0.99471364   -4.5977061   -4.5977061   -3.1056386  0.067087143   -4.5977061    1.4920675      1024000 
  937000   0.99624432   -4.5985189   -4.5985189   -3.1041554   0.07374965   -4.5985189    1.4943635      1024000 
  938000   0.99571251   -4.5982446   -4.5982446   -3.1046788  0.072442275   -4.5982446    1.4935658      1024000 
  939000   0.99536501   -4.5979013   -4.5979013   -3.1048568  0.074454785   -4.5979013    1.4930445      1024000 
  940000   0.99712493   -4.5979214   -4.5979214    -3.102237  0.072235938   -4.5979214    1.4956844      1024000 
  941000   0.99599128   -4.5964186   -4.5964186   -3.1024347   0.07385844   -4.5964186    1.4939839      1024000 
  942000   0.99464646   -4.5964065   -4.5964065   -3.1044399  0.068953493   -4.5964065    1.4919667      1024000 
  943000    0.9958194   -4.5974076   -4.5974076   -3.1036815  0.069804868   -4.5974076    1.4937261      1024000 
  944000   0.99463579   -4.5960092   -4.5960092   -3.1040586  0.072618555   -4.5960092    1.4919507      1024000 
  945000   0.99460919   -4.5964085   -4.5964085   -3.1044977  0.064577673   -4.5964085    1.4919108      1024000 
  946000   0.99507269   -4.5967043   -4.5967043   -3.1040983  0.064999443   -4.5967043     1.492606      1024000 
  947000   0.99465362    -4.596869    -4.596869   -3.1048916  0.064795364    -4.596869    1.4919774      1024000 
  948000   0.99475277   -4.5970375   -4.5970375   -3.1049113  0.061606963   -4.5970375    1.4921262      1024000 
  949000   0.99526628   -4.5955026   -4.5955026   -3.1026062  0.069317353   -4.5955026    1.4928964      1024000 
  950000    0.9954844   -4.5948024   -4.5948024   -3.1015788  0.074909115   -4.5948024    1.4932236      1024000 
  951000   0.99344685   -4.5946606   -4.5946606   -3.1044934  0.070342256   -4.5946606    1.4901673      1024000 
  952000   0.99573443   -4.5964224   -4.5964224   -3.1028237   0.06635968   -4.5964224    1.4935987      1024000 
  953000   0.99463285    -4.594981    -4.594981   -3.1030347   0.07006923    -4.594981    1.4919463      1024000 
  954000    0.9956182   -4.5956758   -4.5956758   -3.1022515  0.065822962   -4.5956758    1.4934243      1024000 
  955000   0.99603874   -4.5963197   -4.5963197   -3.1022646  0.065570954   -4.5963197    1.4940551      1024000 
  956000   0.99465926   -4.5938653   -4.5938653   -3.1018794  0.070433194   -4.5938653    1.4919859      1024000 
  957000   0.99414197   -4.5922975   -4.5922975   -3.1010875  0.069760003   -4.5922975      1.49121      1024000 
  958000   0.99445066   -4.5943276   -4.5943276   -3.1026546  0.067435189   -4.5943276     1.491673      1024000 
  959000   0.99564169   -4.5945603   -4.5945603   -3.1011008  0.072100372   -4.5945603    1.4934595      1024000 
  960000   0.99392912   -4.5936774   -4.5936774   -3.1027867  0.065808785   -4.5936774    1.4908907      1024000 
  961000   0.99427682   -4.5945572   -4.5945572   -3.1031449   0.06583461   -4.5945572    1.4914122      1024000 
  962000   0.99493832   -4.5926818   -4.5926818   -3.1002773  0.069975729   -4.5926818    1.4924045      1024000 
  963000   0.99441679   -4.5940175   -4.5940175   -3.1023953  0.066705289   -4.5940175    1.4916222      1024000 
  964000   0.99455657    -4.593884    -4.593884   -3.1020521  0.070497628    -4.593884    1.4918319      1024000 
  965000   0.99575189   -4.5959973   -4.5959973   -3.1023725  0.061592579   -4.5959973    1.4936248      1024000 
  966000   0.99464641   -4.5928445   -4.5928445   -3.1008778  0.070485912   -4.5928445    1.4919666      1024000 
  967000   0.99568104   -4.5933494   -4.5933494   -3.0998308  0.070688926   -4.5933494    1.4935186      1024000 
  968000   0.99524342   -4.5937912   -4.5937912   -3.1009291  0.069379103   -4.5937912    1.4928621      1024000 
  969000   0.99464878   -4.5924784   -4.5924784   -3.1005082  0.068766613   -4.5924784    1.4919702      1024000 
  970000   0.99456465   -4.5930533   -4.5930533   -3.1012093  0.067110637   -4.5930533     1.491844      1024000 
  971000   0.99648091   -4.5943378   -4.5943378   -3.0996194   0.06592101   -4.5943378    1.4947184      1024000 
  972000   0.99374887     -4.59155     -4.59155   -3.1009297  0.067432681     -4.59155    1.4906203      1024000 
  973000   0.99535502   -4.5936232   -4.5936232   -3.1005937  0.065076803   -4.5936232    1.4930295      1024000 
  974000    0.9951479   -4.5916117   -4.5916117   -3.0988928   0.07289588   -4.5916117    1.4927189      1024000 
  975000   0.99267575   -4.5902195   -4.5902195   -3.1012089  0.071557235   -4.5902195    1.4890106      1024000 
  976000   0.99504708    -4.592824    -4.592824   -3.1002563  0.066657201    -4.592824    1.4925676      1024000 
  977000   0.99589583   -4.5939649   -4.5939649   -3.1001242  0.065343226   -4.5939649    1.4938408      1024000 
  978000   0.99537386   -4.5947424   -4.5947424   -3.1016846  0.065426027   -4.5947424    1.4930578      1024000 
  979000   0.99406392     -4.59452     -4.59452   -3.1034271  0.062232071     -4.59452    1.4910929      1024000 
  980000    0.9947721   -4.5944207   -4.5944207   -3.1022655  0.062502231   -4.5944207    1.4921552      1024000 
  981000   0.99347282   -4.5945744   -4.5945744   -3.1043681  0.062678467   -4.5945744    1.4902063      1024000 
  982000    0.9941994   -4.5937423   -4.5937423   -3.1024462  0.067221766   -4.5937423    1.4912961      1024000 
  983000     0.995346   -4.5944669   -4.5944669   -3.1014509  0.067982283   -4.5944669     1.493016      1024000 
  984000   0.99414977    -4.594243    -4.594243   -3.1030214  0.061828842    -4.594243    1.4912217      1024000 
  985000   0.99438597   -4.5949023   -4.5949023   -3.1033264  0.061444453   -4.5949023     1.491576      1024000 
  986000   0.99398643   -4.5944033   -4.5944033   -3.1034266   0.06558905   -4.5944033    1.4909767      1024000 
  987000   0.99704654    -4.596852    -4.596852   -3.1012852  0.064021108    -4.596852    1.4955668      1024000 
  988000   0.99504739   -4.5955303   -4.5955303   -3.1029622  0.067394663   -4.5955303    1.4925681      1024000 
  989000   0.99657639   -4.5969186   -4.5969186    -3.102057  0.072476038   -4.5969186    1.4948616      1024000 
  990000   0.99451547   -4.5973304   -4.5973304   -3.1055602  0.070676605   -4.5973304    1.4917702      1024000 
  991000   0.99543483   -4.5965805   -4.5965805   -3.1034312  0.067528642   -4.5965805    1.4931492      1024000 
  992000   0.99338983     -4.59474     -4.59474   -3.1046582  0.071493729     -4.59474    1.4900818      1024000 
  993000   0.99490569   -4.5950779   -4.5950779   -3.1027224  0.071926576   -4.5950779    1.4923555      1024000 
  994000   0.99567207   -4.5960778   -4.5960778   -3.1025727  0.072656377   -4.5960778    1.4935051      1024000 
  995000   0.99558789   -4.5978718   -4.5978718    -3.104493  0.066420527   -4.5978718    1.4933788      1024000 
  996000   0.99570493   -4.5968129   -4.5968129   -3.1032585  0.067059872   -4.5968129    1.4935544      1024000 
  997000   0.99530383   -4.5976381   -4.5976381   -3.1046854  0.067283396   -4.5976381    1.4929528      1024000 
  998000   0.99585849   -4.5982161   -4.5982161   -3.1044313   0.06976997   -4.5982161    1.4937847      1024000 
  999000   0.99482251   -4.5963636   -4.5963636   -3.1041328  0.076657935   -4.5963636    1.4922308      1024000 
 1000000   0.99679122   -4.5988567   -4.5988567   -3.1036728  0.072449713   -4.5988567    1.4951838      1024000 
Loop time of 178979 on 8 procs for 1000000 steps with 499200 atoms

Performance: 1206.844 tau/day, 5.587 timesteps/s
95.8% CPU use with 8 MPI tasks x 1 OpenMP threads

MPI task timing breakdown:
Section |  min time  |  avg time  |  max time  |%varavg|  %CPU | %total
-----------------------------------------------------------------------
Pair    | 1.2359e+05 | 1.404e+05  | 1.4906e+05 |2566.8 |  99.4 | 78.45
Bond    | 0.61768    | 0.70773    | 0.81787    |   9.1 | 100.0 |  0.00
Neigh   | 16795      | 19214      | 20181      | 980.5 |  99.8 | 10.74
Comm    | 6971.5     | 16253      | 35222      |8561.5 |  61.1 |  9.08
Output  | 28.264     | 32.78      | 40.595     |  81.1 | 100.0 |  0.02
Modify  | 1035.9     | 1628.7     | 3292.5     |2301.1 |  88.7 |  0.91
Other   |            | 1449       |            |       |       |  0.81

Nlocal:    62400 ave 62795 max 61666 min
Histogram: 1 0 0 1 0 0 0 4 0 2
Nghost:    46280.5 ave 53852 max 38736 min
Histogram: 4 0 0 0 0 0 0 0 0 4
Neighs:    9.6636e+06 ave 1.03326e+07 max 8.37826e+06 min
Histogram: 2 0 0 0 0 0 0 1 3 2

Total # of neighbors = 77308793
Ave neighs/atom = 154.865
Ave special neighs/atom = 0
Neighbor list builds = 66654
Dangerous builds = 558
Total wall time: 49:45:14
