LAMMPS (24 Dec 2020)
OMP_NUM_THREADS environment is not set. Defaulting to 1 thread. (src/comm.cpp:94)
  using 1 OpenMP thread(s) per MPI task
#Read the equilibrated lj fluid and add nanocubes

units           lj
atom_style      full
#atom_modify     map array first cubes
dimension       3
boundary        p p f
pair_style      lj/cut/opt 2.5

variable        sigma           equal 1.0
variable        epsilon         equal 1.0
read_restart	restart.dat.10000000
Reading restart file ...
  restart file = 24 Dec 2020, LAMMPS = 24 Dec 2020
WARNING: Restart file used different # of processors: 288 vs. 336 (src/read_restart.cpp:697)
  restoring atom style full from restart
  orthogonal box = (0.0000000 0.0000000 0.0000000) to (80.000000 80.000000 160.00000)
  6 by 4 by 14 MPI processor grid
  restoring pair style lj/cut/opt from restart
  476190 atoms
Finding 1-2 1-3 1-4 neighbors ...
  special bond factors lj:    0        0        0       
  special bond factors coul:  0        0        0       
     0 = max # of 1-2 neighbors
     0 = max # of 1-3 neighbors
     0 = max # of 1-4 neighbors
     1 = max # of special neighbors
  special bonds CPU = 2.800 seconds
  read_restart CPU = 3.300 seconds

group		solvent type 1
366462 atoms in group solvent
group 		hull  type 2
42816 atoms in group hull
group 		dummy type 3
66912 atoms in group dummy

neighbor      0.4 bin
neigh_modify  exclude molecule/intra cubes

pair_modify   shift yes

pair_coeff    1 1 1.0 1.0 #solvent
pair_coeff    2 2 1.0 1.0 1.12 #np
pair_coeff    3 3 0.0 0.0 0.0 #dummy
pair_coeff    2 3 0.0 0.0 0.0 #np dummy
pair_coeff    1 2 ${sol} 1.0  #np solvent
pair_coeff    1 2 0.55 1.0  
pair_coeff    1 3 0.0 0.0 0.0 #dummy solvent


comm_modify   mode multi cutoff/multi 1 2.5 cutoff/multi 2 2.5 cutoff/multi 3 6.95

reset_timestep 	0

balance 	1.05 shift z 10 1.05
Balancing ...
Unused restart file global fix info:
  fix style: STORE, fix ID: msd_COMPUTE_STORE
Unused restart file peratom fix info:
  fix style: STORE, fix ID: bin1_COMPUTE_STORE
  fix style: STORE, fix ID: bin3_COMPUTE_STORE
Neighbor list info ...
  update every 1 steps, delay 10 steps, check yes
  max neighbors/atom: 2000, page size: 100000
  master list distance cutoff = 2.9
  ghost atom cutoff = 6.95
  binsize = 1.45, bins = 56 56 111
  1 neighbor lists, perpetual/occasional/extra = 1 0 0
  (1) pair lj/cut/opt, perpetual
      attributes: half, newton on
      pair build: half/bin/newton
      stencil: half/bin/3d/newton
      bin: standard
 rebalancing time: 0.078 seconds
  iteration count = 3
  initial/final maximal load/proc = 2249.0000 2258.0000
  initial/final imbalance factor  = 1.5868960 1.5932464
  x cuts: 0.0000000 0.16666667 0.33333333 0.50000000 0.66666667 0.83333333 1.0000000
  y cuts: 0.0000000 0.25000000 0.50000000 0.75000000 1.0000000
  z cuts: 0.0000000 0.062500000 0.11607143 0.16964286 0.22321429 0.26785714 0.33928571 0.37500000 0.44642857 0.50892857 0.52678571 0.59821429 0.66964286 0.74107143 1.0000000

####################### WALLS ###########################

variable       epsilonWall equal 2*${epsilon}
variable       epsilonWall equal 2*1
variable       repulsive   equal   0.7147*${sigma}
variable       repulsive   equal   0.7147*1
variable       full	   equal   3*${sigma}
variable       full	   equal   3*1
region         lowWall block EDGE EDGE EDGE EDGE EDGE 2

fix            topWall all wall/lj93 zhi EDGE 	       ${epsilonWall} ${sigma} ${repulsive} units box
fix            topWall all wall/lj93 zhi EDGE 	       2 ${sigma} ${repulsive} units box
fix            topWall all wall/lj93 zhi EDGE 	       2 1 ${repulsive} units box
fix            topWall all wall/lj93 zhi EDGE 	       2 1 0.7147 units box
fix            lowSol solvent wall/lj93 zlo EDGE                ${epsilonWall} ${sigma} ${full} units box
fix            lowSol solvent wall/lj93 zlo EDGE                2 ${sigma} ${full} units box
fix            lowSol solvent wall/lj93 zlo EDGE                2 1 ${full} units box
fix            lowSol solvent wall/lj93 zlo EDGE                2 1 3 units box
fix 	       lowCub cubes wall/lj93 zlo EDGE                ${epsilonWall} ${sigma} ${repulsive} units box
fix 	       lowCub cubes wall/lj93 zlo EDGE                2 ${sigma} ${repulsive} units box
fix 	       lowCub cubes wall/lj93 zlo EDGE                2 1 ${repulsive} units box
fix 	       lowCub cubes wall/lj93 zlo EDGE                2 1 0.7147 units box


###################### COMPUTES ##########################

compute        bin1 solvent chunk/atom bin/1d z lower 1.0 units box
compute        bin3 solvent chunk/atom bin/3d x lower 5.0 y lower 5.0 z lower 5.0 units box

compute 	pe solvent 	   pe/atom
compute 	pe2 all 	   pe/atom

######################  FIXES ############################


fix             peclet solvent ave/chunk 10 10 10000 bin1 density/number norm                  none ave one file density.profile

fix              temp solvent ave/chunk 10 10 10000 bin1 temp norm                  none ave one file temp.profile

fix 		 dens solvent ave/chunk 10 10 500000 bin3 density/number norm 		 none ave one file dens3.profile

fix		 temp2 solvent ave/chunk 10 10 500000 bin3 temp norm none ave one file temp3.profile

fix 		pe solvent ave/chunk 1 1 500000 bin3 c_pe norm none ave one file pe3.profile



################### INTEGRATION

fix             1 cubes rigid/nve/small molecule
  create bodies CPU = 0.046 seconds
  96 rigid bodies with 109728 atoms
  6.9282032 = max distance from body owner to body atom

fix             2 solvent nve



## Thermostat
region          regthermo block EDGE EDGE EDGE EDGE 0 15
group           thermo dynamic solvent region regthermo every 1000
dynamic group thermo defined
fix             3 thermo langevin ${temp} ${temp} 10 156453
fix             3 thermo langevin 1.0 ${temp} 10 156453
fix             3 thermo langevin 1.0 1.0 10 156453

## Evaporation
region		regevap block EDGE EDGE EDGE EDGE 140 EDGE
fix 		4 solvent evaporate ${evap} 1 regevap 156415
fix 		4 solvent evaporate 85 1 regevap 156415


#### Load balancing

fix             bal all balance 1000 1.05 shift z 10 1.05

############### Diagnostics and computes ###################

compute        	com cubes          rigid/local   1 mol x y z
compute        	quat cubes         rigid/local   1 mol quatw quati quatj quatk

compute 	cc2 cubes 	   chunk/atom 	 molecule
compute 	msd cubes 	   msd/chunk 	 cc2

fix 		msd all ave/time  1 1 10000 c_msd[*] file dump.msd ave one mode vector

dump            1 all custom 500000 dump.lammpstrj id mol type x y z vx vy vz c_pe2
dump		sol  solvent custom 500000 dump.soltrj id x y z vx vy vz c_pe
dump		cubetrj cubes custom 500000 cubes.lammpstrj id mol type x y z vx vy vz
dump            com cubes local 500000 dump.*.xyz c_com[*]
dump	        xyz hull xyz 500000 cubes.xyz
#dump            quat cubes      local 100000 dump.*.quat c_quat[*]
dump		order cubes 	local 100000 dump.*.order c_com[*] c_quat[*]
#dump		mol cubes molfile 10000 mol.xyz xyz


dump            2 all image 100000 image.*.png type type zoom 1.5 size 1280 720
dump_modify     2 pad 8
dump		image cubes image 100000 image_cubes.*.png type type zoom 1.5 size 1280 720
dump_modify	image pad 8
dump            3 all movie 5000 movie.avi type type zoom 1.5 size 1280 720
dump		4 cubes movie 5000 movie_cubes.avi type type size 1280 720


thermo          1000
thermo_style    custom step temp epair evdwl etotal press pe ke atoms

restart         1000000 restart.dat
timestep        0.005
timer           full
New timer settings: style=full  mode=nosync  timeout=off

run 		${steps}
run 		30000000
Per MPI rank memory allocation (min/avg/max) = 17.12 | 21.80 | 25.87 Mbytes
Step Temp E_pair E_vdwl TotEng Press PotEng KinEng Atoms 
       0    1.0051291   -2.4017806   -2.4017806   -1.2408987  0.071061231   -2.4017806     1.160882   476190 
    1000    1.0064479   -2.4040721   -2.4040721   -1.2416401  0.069355714   -2.4040721     1.162432   476179 
    2000    1.0068788   -2.4043974   -2.4043974   -1.2414383  0.070346053   -2.4043974     1.162959   476167 
    3000    1.0080744   -2.4057079   -2.4057079   -1.2413386  0.068363461   -2.4057079    1.1643693   476155 
    4000    1.0072636   -2.4049047   -2.4049047   -1.2414427  0.068868737   -2.4049047    1.1634621   476143 
    5000    1.0071144   -2.4038425   -2.4038425   -1.2405258  0.080554428   -2.4038425    1.1633167   476132 
    6000    1.0091748    -2.405763    -2.405763    -1.240037   0.06616661    -2.405763     1.165726   476120 
    7000    1.0077506   -2.4038853   -2.4038853   -1.2397752  0.076559329   -2.4038853    1.1641102   476108 
    8000    1.0084442   -2.4044984   -2.4044984   -1.2395576  0.071943169   -2.4044984    1.1649408   476096 
    9000    1.0055953   -2.4015942   -2.4015942   -1.2399176  0.077580786   -2.4015942    1.1616766   476085 
   10000    1.0061287   -2.4033424   -2.4033424   -1.2410203  0.062712248   -2.4033424    1.1623221   476073 
   11000    1.0056916   -2.4026524   -2.4026524   -1.2408059  0.061150182   -2.4026524    1.1618464   476061 
   12000    1.0059539   -2.4017581   -2.4017581   -1.2395793  0.066503058   -2.4017581    1.1621788   476049 
   13000    1.0067909    -2.403788    -2.403788   -1.2406154  0.073994099    -2.403788    1.1631726   476038 
   14000     1.007533   -2.4050408   -2.4050408   -1.2409814  0.070131074   -2.4050408    1.1640593   476026 
   15000    1.0060588   -2.4028316   -2.4028316   -1.2404462  0.070309195   -2.4028316    1.1623854   476014 
   16000    1.0069886   -2.4034946   -2.4034946   -1.2400056  0.071743783   -2.4034946    1.1634889   476002 
   17000    1.0069185   -2.4032751   -2.4032751   -1.2398378  0.074989951   -2.4032751    1.1634374   475990 
   18000    1.0053488   -2.4025396   -2.4025396   -1.2408891  0.072337813   -2.4025396    1.1616505   475979 
   19000    1.0078671   -2.4050604   -2.4050604   -1.2404708  0.065242409   -2.4050604    1.1645896   475967 
   20000    1.0066415    -2.403752    -2.403752   -1.2405492  0.066018939    -2.403752    1.1632028   475955 
   21000    1.0055434   -2.4027445   -2.4027445   -1.2407813  0.060981795   -2.4027445    1.1619632   475943 
   22000    1.0047402   -2.4029278   -2.4029278    -1.241866  0.067947299   -2.4029278    1.1610619   475932 
   23000     1.006024   -2.4036014   -2.4036014   -1.2410266  0.061821544   -2.4036014    1.1625748   475920 
   24000    1.0045249   -2.4017964   -2.4017964   -1.2409247  0.063244123   -2.4017964    1.1608717   475908 
   25000    1.0062635   -2.4040829   -2.4040829   -1.2411726  0.071090336   -2.4040829    1.1629102   475896 
   26000    1.0046831   -2.4022553   -2.4022553   -1.2411447  0.068251181   -2.4022553    1.1611106   475885 
   27000    1.0063403   -2.4042291   -2.4042291    -1.241174  0.069973902   -2.4042291    1.1630551   475873 
   28000    1.0031455   -2.4018849   -2.4018849   -1.2424929  0.066737787   -2.4018849     1.159392   475861 
   29000    1.0057128   -2.4029981   -2.4029981   -1.2406096  0.067193226   -2.4029981    1.1623885   475849 
   30000    1.0048919   -2.4034283   -2.4034283   -1.2419616  0.058447563   -2.4034283    1.1614666   475838 
   31000    1.0046099   -2.4029047   -2.4029047   -1.2417348  0.058522794   -2.4029047    1.1611699   475826 
   32000    1.0039943   -2.4020158   -2.4020158    -1.241528  0.065882524   -2.4020158    1.1604877   475814 
   33000    1.0040808   -2.4021249   -2.4021249   -1.2415079  0.066206424   -2.4021249     1.160617   475802 
   34000    1.0041491      -2.4022      -2.4022   -1.2414748  0.067546588      -2.4022    1.1607252   475790 
   35000    1.0050017   -2.4030236   -2.4030236    -1.241286  0.061259258   -2.4030236    1.1617376   475779 
   36000    1.0037468   -2.4025481   -2.4025481   -1.2422318  0.068616715   -2.4025481    1.1603162   475767 
   37000    1.0055816   -2.4038832   -2.4038832   -1.2414167  0.068399617   -2.4038832    1.1624666   475755 
   38000    1.0055435   -2.4036835   -2.4036835   -1.2412317  0.066818131   -2.4036835    1.1624518   475743 
   39000     1.004364   -2.4021122   -2.4021122   -1.2409971   0.06582007   -2.4021122    1.1611151   475732 
   40000    1.0055517    -2.403443    -2.403443   -1.2409255  0.068924998    -2.403443    1.1625175   475720 
   41000    1.0075576   -2.4058624   -2.4058624   -1.2409965   0.07288104   -2.4058624    1.1648658   475708 
   42000    1.0074505   -2.4051125   -2.4051125    -1.240341  0.066880934   -2.4051125    1.1647714   475696 
   43000    1.0061622    -2.404769    -2.404769   -1.2414602  0.072625917    -2.404769    1.1633088   475685 
   44000    1.0068952   -2.4055165   -2.4055165   -1.2413307  0.072051384   -2.4055165    1.1641857   475673 
   45000    1.0047412    -2.403173    -2.403173   -1.2414484  0.076508957    -2.403173    1.1617246   475661 
   46000    1.0054396   -2.4052708   -2.4052708   -1.2427094  0.071910758   -2.4052708    1.1625614   475649 
   47000    1.0073785    -2.408092    -2.408092   -1.2432618  0.070605879    -2.408092    1.1648302   475638 
   48000    1.0061719   -2.4070913   -2.4070913   -1.2436269  0.068151161   -2.4070913    1.1634644   475626 
   49000    1.0064609   -2.4071155   -2.4071155   -1.2432876   0.06095351   -2.4071155    1.1638279   475614 
   50000     1.006953   -2.4071978   -2.4071978   -1.2427714  0.072128171   -2.4071978    1.1644264   475602 
   51000    1.0048881   -2.4061901   -2.4061901   -1.2441222    0.0631977   -2.4061901    1.1620679   475590 
   52000    1.0060806   -2.4069785   -2.4069785   -1.2435047  0.069496035   -2.4069785    1.1634738   475579 
   53000    1.0047861   -2.4059699   -2.4059699   -1.2439638  0.070813231   -2.4059699    1.1620061   475567 
   54000    1.0043433     -2.40673     -2.40673   -1.2452067   0.06829329     -2.40673    1.1615233   475555 
   55000    1.0033695   -2.4051931   -2.4051931   -1.2447667  0.064662647   -2.4051931    1.1604264   475543 
   56000    1.0033853   -2.4042927   -2.4042927   -1.2438212  0.067618707   -2.4042927    1.1604715   475532 
   57000     1.003334   -2.4056483   -2.4056483   -1.2452068  0.062729506   -2.4056483    1.1604415   475520 
   58000    1.0028219   -2.4047335   -2.4047335    -1.244855  0.069161069   -2.4047335    1.1598785   475508 
   59000    1.0044664   -2.4061702   -2.4061702   -1.2443603  0.066669598   -2.4061702    1.1618099   475496 
   60000    1.0015458   -2.4028236   -2.4028236    -1.244365  0.068653218   -2.4028236    1.1584585   475485 
   61000     1.003028   -2.4052045   -2.4052045   -1.2450023  0.064153443   -2.4052045    1.1602022   475473 
   62000    1.0043786   -2.4062092   -2.4062092   -1.2444154  0.070856359   -2.4062092    1.1617938   475461 
   63000    1.0046623   -2.4063885   -2.4063885   -1.2442372  0.062896885   -2.4063885    1.1621513   475449 
   64000    1.0041424   -2.4068567   -2.4068567   -1.2452799  0.060430624   -2.4068567    1.1615767   475438 
   65000    1.0035232   -2.4060122   -2.4060122   -1.2451224  0.070720323   -2.4060122    1.1608898   475426 
   66000     1.003525   -2.4057684   -2.4057684   -1.2448473  0.069628802   -2.4057684    1.1609212   475414 
   67000     1.004289   -2.4064761   -2.4064761   -1.2446417  0.067520026   -2.4064761    1.1618343   475402 
   68000    1.0035945   -2.4063797   -2.4063797   -1.2453195   0.06486851   -2.4063797    1.1610602   475390 
   69000    1.0028805   -2.4052875   -2.4052875   -1.2450265  0.070322212   -2.4052875     1.160261   475379 
   70000    1.0044021   -2.4074399   -2.4074399   -1.2453892  0.062051894   -2.4074399    1.1620507   475367 
   71000    1.0029047   -2.4058208   -2.4058208   -1.2454731  0.069380981   -2.4058208    1.1603476   475355 
   72000    1.0027148   -2.4059466   -2.4059466   -1.2457894  0.069761876   -2.4059466    1.1601572   475343 
   73000    1.0017074    -2.404624    -2.404624   -1.2456055  0.064607196    -2.404624    1.1590184   475332 
   74000    1.0030798   -2.4060048   -2.4060048   -1.2453692  0.067887048   -2.4060048    1.1606356   475320 
   75000    1.0036046   -2.4064921   -2.4064921     -1.24522   0.06991447   -2.4064921    1.1612721   475308 
   76000    1.0030012   -2.4065868   -2.4065868   -1.2459835  0.065713693   -2.4065868    1.1606033   475296 
   77000    1.0039133   -2.4066893   -2.4066893   -1.2450036   0.06588785   -2.4066893    1.1616856   475285 
   78000    1.0019754   -2.4046577   -2.4046577   -1.2451853  0.068408468   -2.4046577    1.1594724   475273 
   79000    1.0015139   -2.4048653   -2.4048653   -1.2458976  0.061105349   -2.4048653    1.1589677   475261 
   80000    1.0029381   -2.4075603   -2.4075603   -1.2469153  0.069134137   -2.4075603    1.1606451   475249 
   81000    1.0032743   -2.4073523   -2.4073523   -1.2462913  0.070426381   -2.4073523     1.161061   475238 
   82000    1.0037543   -2.4075964   -2.4075964   -1.2459507  0.067877754   -2.4075964    1.1616458   475226 
   83000    1.0044665   -2.4074247   -2.4074247   -1.2449254   0.06680663   -2.4074247    1.1624993   475214 
   84000    1.0036818   -2.4069733   -2.4069733   -1.2453527   0.06821941   -2.4069733    1.1616206   475202 
   85000    1.0023109   -2.4052971   -2.4052971   -1.2452339  0.065824094   -2.4052971    1.1600632   475190 
   86000    1.0020362   -2.4042221   -2.4042221     -1.24445   0.07102013   -2.4042221    1.1597721   475179 
   87000    1.0030432   -2.4047228   -2.4047228   -1.2437559  0.066832055   -2.4047228     1.160967   475167 
   88000    1.0043878   -2.4061942   -2.4061942   -1.2436415  0.075496434   -2.4061942    1.1625526   475155 
   89000    1.0043421   -2.4064535   -2.4064535   -1.2439243  0.070927176   -2.4064535    1.1625291   475143 
   90000    1.0045379   -2.4070928   -2.4070928   -1.2443102  0.066519384   -2.4070928    1.1627827   475132 
   91000     1.002811   -2.4051035   -2.4051035   -1.2442905  0.068761444   -2.4051035     1.160813   475120 
   92000    1.0037806   -2.4054195   -2.4054195   -1.2434548  0.071331126   -2.4054195    1.1619647   475108 
   93000    1.0041416    -2.405855    -2.405855    -1.243443  0.064447933    -2.405855     1.162412   475096 
   94000    1.0059498    -2.407609    -2.407609   -1.2430769   0.07294413    -2.407609    1.1645322   475085 
   95000    1.0041101   -2.4053844   -2.4053844   -1.2429526  0.068743509   -2.4053844    1.1624318   475073 
   96000    1.0031995   -2.4048126   -2.4048126   -1.2434056  0.066319017   -2.4048126     1.161407   475061 
   97000    1.0027235   -2.4027859   -2.4027859   -1.2419007   0.06982792   -2.4027859    1.1608852   475049 
   98000    1.0035535   -2.4034727   -2.4034727   -1.2415997  0.063964499   -2.4034727     1.161873   475038 
   99000    1.0004623   -2.4001531   -2.4001531   -1.2418296  0.067121841   -2.4001531    1.1583235   475026 
  100000    1.0029399   -2.4024356   -2.4024356   -1.2412142  0.067481143   -2.4024356    1.1612213   475014 
  101000    1.0011266   -2.4007591   -2.4007591    -1.241608  0.074320734   -2.4007591    1.1591512   475002 
  102000    1.0024205   -2.4033154   -2.4033154   -1.2426368  0.068356502   -2.4033154    1.1606786   474990 
  103000   0.99946959    -2.401178    -2.401178   -1.2438894  0.075330829    -2.401178    1.1572886   474979 
  104000    1.0018772   -2.4030923   -2.4030923   -1.2429866  0.066993863   -2.4030923    1.1601056   474967 
  105000    1.0020322   -2.4042189   -2.4042189   -1.2439044  0.068163349   -2.4042189    1.1603144   474955 
  106000    1.0025601   -2.4044809   -2.4044809   -1.2435258  0.062721043   -2.4044809    1.1609552   474943 
  107000    1.0010876    -2.401729    -2.401729   -1.2424522  0.063977225    -2.401729    1.1592768   474932 
  108000     1.001108   -2.4017409   -2.4017409   -1.2424112  0.063901876   -2.4017409    1.1593297   474920 
  109000    1.0036547   -2.4040895   -2.4040895   -1.2417813  0.069257328   -2.4040895    1.1623082   474908 
  110000    1.0015501   -2.4029114   -2.4029114   -1.2430111   0.06297424   -2.4029114    1.1599003   474896 
  111000    1.0020442   -2.4047313   -2.4047313   -1.2442318  0.072999519   -2.4047313    1.1604995   474885 
  112000    1.0023849   -2.4041228   -2.4041228   -1.2431996  0.070574908   -2.4041228    1.1609233   474873 
  113000    1.0011119    -2.403824    -2.403824   -1.2443457  0.066802842    -2.403824    1.1594783   474861 
  114000     1.004064   -2.4062483   -2.4062483   -1.2433216  0.066891667   -2.4062483    1.1629267   474849 
  115000    1.0020135   -2.4049674   -2.4049674   -1.2443887  0.069339339   -2.4049674    1.1605787   474838 
  116000    1.0013463   -2.4037271   -2.4037271   -1.2438919  0.067283153   -2.4037271    1.1598352   474826 
  117000    1.0012615   -2.4035231   -2.4035231   -1.2437568  0.062210213   -2.4035231    1.1597664   474814 
  118000    1.0018383   -2.4043693   -2.4043693   -1.2439055  0.066298299   -2.4043693    1.1604638   474802 
  119000     1.002547   -2.4052799   -2.4052799   -1.2439658  0.066558508   -2.4052799    1.1613141   474790 
  120000     1.001733   -2.4059308   -2.4059308   -1.2455327  0.062175651   -2.4059308    1.1603981   474779 
  121000    1.0016432   -2.4055963   -2.4055963    -1.245273  0.067650222   -2.4055963    1.1603233   474767 
  122000    1.0001694    -2.404271    -2.404271   -1.2456257  0.064434533    -2.404271    1.1586453   474755 
  123000    1.0015949   -2.4061163   -2.4061163   -1.2457902   0.06918393   -2.4061163    1.1603261   474743 
  124000    1.0016139   -2.4049184   -2.4049184   -1.2445435  0.066163912   -2.4049184    1.1603749   474732 
  125000     1.001595   -2.4050182   -2.4050182   -1.2446358  0.071802946   -2.4050182    1.1603824   474720 
  126000   0.99992298   -2.4033491   -2.4033491   -1.2448746  0.074222208   -2.4033491    1.1584746   474708 
  127000    1.0021533   -2.4063372   -2.4063372   -1.2452492  0.064969558   -2.4063372    1.1610879   474696 
  128000    1.0029355   -2.4060388   -2.4060388   -1.2440177  0.068895494   -2.4060388    1.1620211   474685 
  129000    1.0016118   -2.4044875   -2.4044875   -1.2439708   0.07210181   -2.4044875    1.1605167   474673 
  130000    1.0006224   -2.4049424   -2.4049424   -1.2455428  0.072703162   -2.4049424    1.1593997   474661 
  131000    1.0011199   -2.4050856   -2.4050856   -1.2450801  0.069948775   -2.4050856    1.1600055   474649 
  132000    1.0014938   -2.4052109   -2.4052109   -1.2447454  0.065295486   -2.4052109    1.1604655   474638 
  133000    1.0016814   -2.4049707   -2.4049707   -1.2442585  0.070262955   -2.4049707    1.1607122   474626 
  134000     1.002088   -2.4055565   -2.4055565   -1.2443437  0.070244397   -2.4055565    1.1612128   474614 
  135000    1.0022012   -2.4052829   -2.4052829   -1.2439095   0.06774137   -2.4052829    1.1613734   474602 
  136000    1.0009606   -2.4043925   -2.4043925   -1.2444275  0.078524484   -2.4043925     1.159965   474590 
  137000    1.0020117   -2.4043511   -2.4043511    -1.243141  0.069962723   -2.4043511    1.1612101   474579 
  138000    1.0014217   -2.4038279   -2.4038279   -1.2432723  0.068210165   -2.4038279    1.1605556   474567 
  139000    1.0043053   -2.4067297   -2.4067297   -1.2428028  0.068448143   -2.4067297    1.1639269   474555 
  140000    1.0033277   -2.4058383   -2.4058383    -1.243015  0.069167617   -2.4058383    1.1628233   474543 
  141000    1.0018931   -2.4041748   -2.4041748   -1.2429872  0.067577367   -2.4041748    1.1611875   474532 
  142000    1.0024073   -2.4043445   -2.4043445   -1.2425316  0.074509776   -2.4043445    1.1618129   474520 
  143000    1.0028469   -2.4049423   -2.4049423   -1.2425905   0.06831518   -2.4049423    1.1623518   474508 
  144000    1.0005977   -2.4038147   -2.4038147   -1.2440405  0.068265882   -2.4038147    1.1597742   474496 
  145000    1.0010059   -2.4052334   -2.4052334   -1.2449591  0.067075325   -2.4052334    1.1602743   474485 
  146000    1.0009881   -2.4056813   -2.4056813   -1.2453983  0.061999923   -2.4056813    1.1602829   474473 
  147000    1.0024312   -2.4050313   -2.4050313   -1.2430462  0.062687844   -2.4050313    1.1619851   474461 
  148000    1.0029889   -2.4048867   -2.4048867   -1.2422257  0.066783383   -2.4048867     1.162661   474449 
  149000    1.0007051   -2.4024488   -2.4024488   -1.2424083  0.070615054   -2.4024488    1.1600405   474438 
  150000    1.0014026   -2.4036832   -2.4036832   -1.2428047  0.066612126   -2.4036832    1.1608784   474426 
  151000     1.001088   -2.4021828   -2.4021828   -1.2416397  0.073380305   -2.4021828    1.1605431   474414 
  152000    0.9999123   -2.4011427   -2.4011427   -1.2419333  0.072885361   -2.4011427    1.1592094   474402 
  153000    1.0005871   -2.4030827   -2.4030827   -1.2430616  0.070360871   -2.4030827     1.160021   474390 
  154000     1.000627   -2.4025133   -2.4025133   -1.2424191  0.063020478   -2.4025133    1.1600942   474379 
  155000     1.000297   -2.4014478   -2.4014478   -1.2417068   0.06687711   -2.4014478     1.159741   474367 
  156000    1.0018618   -2.4012428   -2.4012428   -1.2396583   0.06422351   -2.4012428    1.1615846   474355 
  157000    1.0015398   -2.4023251   -2.4023251   -1.2410845  0.062737842   -2.4023251    1.1612406   474343 
  158000    1.0015949   -2.4039275   -2.4039275   -1.2425961   0.06463821   -2.4039275    1.1613314   474332 
  159000    1.0014782    -2.402979    -2.402979   -1.2417535  0.068648967    -2.402979    1.1612255   474320 
  160000    1.0008397   -2.4027921   -2.4027921   -1.2422776  0.076582112   -2.4027921    1.1605145   474308 
  161000     0.999787   -2.4019838   -2.4019838   -1.2426606  0.063977176   -2.4019838    1.1593232   474296 
  162000    1.0008974   -2.4036098   -2.4036098   -1.2429721  0.066480811   -2.4036098    1.1606377   474285 
  163000     1.001152   -2.4049186   -2.4049186   -1.2439563  0.069233359   -2.4049186    1.1609623   474273 
  164000    1.0006871   -2.4043904   -2.4043904   -1.2439378   0.06514758   -2.4043904    1.1604525   474261 
  165000   0.99857203   -2.4017366   -2.4017366   -1.2437074  0.068394133   -2.4017366    1.1580291   474249 
  166000    1.0006352   -2.4037507   -2.4037507    -1.243302  0.063601565   -2.4037507    1.1604487   474238 
  167000    1.0002247   -2.4031629   -2.4031629    -1.243161  0.062484307   -2.4031629     1.160002   474226 
  168000    1.0007921   -2.4033181   -2.4033181   -1.2426288   0.06659104   -2.4033181    1.1606893   474214 
  169000   0.99945387   -2.4015122   -2.4015122   -1.2423456  0.064042252   -2.4015122    1.1591666   474202 
  170000   0.99997184   -2.4014398   -2.4014398   -1.2416431  0.066187274   -2.4014398    1.1597967   474190 
  171000    1.0005385   -2.4029162   -2.4029162   -1.2424353  0.070276743   -2.4029162    1.1604809   474179 
  172000    1.0017281   -2.4043886   -2.4043886   -1.2424985   0.06902033   -2.4043886    1.1618901   474167 
  173000    1.0017796   -2.4037359   -2.4037359   -1.2417567  0.072557924   -2.4037359    1.1619792   474155 
  174000    1.0013809   -2.4051333   -2.4051333   -1.2435872  0.067345365   -2.4051333    1.1615461   474143 
  175000    1.0028675   -2.4070634   -2.4070634   -1.2437659  0.071072302   -2.4070634    1.1632975   474132 
  176000     1.001433   -2.4057015   -2.4057015   -1.2440385  0.074292535   -2.4057015     1.161663   474120 
  177000    1.0025138   -2.4062126   -2.4062126   -1.2432666   0.06368021   -2.4062126     1.162946   474108 
  178000    1.0002553   -2.4042802   -2.4042802   -1.2439247  0.067700652   -2.4042802    1.1603555   474096 
  179000    1.0006926   -2.4042589   -2.4042589   -1.2433692   0.06875138   -2.4042589    1.1608898   474085 
  180000    1.0029149   -2.4062136   -2.4062136   -1.2427163  0.070078288   -2.4062136    1.1634972   474073 
  181000    1.0001923   -2.4047217   -2.4047217   -1.2443536  0.068656689   -2.4047217    1.1603681   474061 
  182000   0.99774951    -2.402379    -2.402379   -1.2448156  0.067088186    -2.402379    1.1575634   474049 
  183000    1.0002059   -2.4050146   -2.4050146   -1.2445745  0.068851054   -2.4050146    1.1604402   474038 
  184000   0.99868725   -2.4031755   -2.4031755   -1.2444679  0.060774867   -2.4031755    1.1587076   474026 
  185000   0.99846162   -2.4040199   -2.4040199   -1.2455448  0.064749937   -2.4040199    1.1584751   474014 
  186000   0.99924471    -2.405167    -2.405167    -1.245754  0.062019329    -2.405167    1.1594131   474002 
  187000    1.0008161   -2.4064268   -2.4064268   -1.2451612  0.068271393   -2.4064268    1.1612657   473990 
  188000    1.0000772   -2.4051969   -2.4051969   -1.2447617  0.062685953   -2.4051969    1.1604352   473979 
  189000    1.0012039   -2.4049809   -2.4049809   -1.2432088  0.064062418   -2.4049809    1.1617721   473967 
  190000   0.99864995   -2.4031284   -2.4031284   -1.2442906  0.071254025   -2.4031284    1.1588379   473955 
  191000   0.99950641   -2.4037802   -2.4037802   -1.2439191  0.068647562   -2.4037802    1.1598611   473943 
  192000   0.99965613   -2.4040568   -2.4040568    -1.243995  0.074198921   -2.4040568    1.1600617   473932 
  193000   0.99827384   -2.4025709   -2.4025709   -1.2440839  0.064600223   -2.4025709     1.158487   473920 
  194000    1.0000358   -2.4045806   -2.4045806   -1.2440195  0.066219837   -2.4045806    1.1605611   473908 
  195000    1.0007338   -2.4054998   -2.4054998   -1.2440992  0.068415169   -2.4054998    1.1614006   473896 
  196000    1.0016453   -2.4062491   -2.4062491   -1.2437638  0.069603518   -2.4062491    1.1624854   473885 
  197000   0.99909443   -2.4038098   -2.4038098   -1.2442555   0.06845782   -2.4038098    1.1595543   473873 
  198000   0.99878467   -2.4036249   -2.4036249   -1.2444008  0.063217155   -2.4036249    1.1592241   473861 
  199000   0.99798842   -2.4026199   -2.4026199   -1.2442906  0.071296158   -2.4026199    1.1583293   473849 
  200000   0.99893201   -2.4037575   -2.4037575   -1.2443061  0.067987171   -2.4037575    1.1594514   473838 
  201000   0.99866239   -2.4031899   -2.4031899   -1.2440221  0.066425333   -2.4031899    1.1591678   473826 
  202000   0.99952435   -2.4046177   -2.4046177   -1.2444201  0.063272415   -2.4046177    1.1601977   473814 
  203000   0.99910681   -2.4026538   -2.4026538   -1.2429114   0.07067367   -2.4026538    1.1597424   473802 
  204000    1.0014757    -2.404517    -2.404517   -1.2419954  0.065907458    -2.404517    1.1625216   473790 
  205000      1.00073   -2.4043449   -2.4043449   -1.2426619  0.068696565   -2.4043449     1.161683   473779 
  206000   0.99798904   -2.4021623   -2.4021623   -1.2436318  0.061743478   -2.4021623    1.1585305   473767 
  207000   0.99985927   -2.4034319   -2.4034319   -1.2427009  0.067449261   -2.4034319     1.160731   473755 
  208000   0.99739656   -2.4013971   -2.4013971   -1.2434958  0.074693719   -2.4013971    1.1579014   473743 
  209000   0.99855125   -2.4024161   -2.4024161   -1.2431473  0.064173329   -2.4024161    1.1592688   473732 
  210000   0.99912927   -2.4021239   -2.4021239   -1.2421547  0.070421813   -2.4021239    1.1599692   473720 
  211000   0.99910665   -2.4027427   -2.4027427   -1.2427704  0.065672918   -2.4027427    1.1599723   473708 
  212000    0.9980417   -2.4013859   -2.4013859   -1.2426206  0.067648885   -2.4013859    1.1587653   473696 
  213000   0.99711371   -2.4009511   -2.4009511   -1.2432364  0.070486937   -2.4009511    1.1577147   473685 
  214000   0.99740709   -2.4004291   -2.4004291   -1.2423444  0.065042419   -2.4004291    1.1580847   473673 
  215000   0.99795481   -2.4014185   -2.4014185   -1.2426685  0.065581646   -2.4014185      1.15875   473661 
  216000   0.99928827    -2.403385    -2.403385   -1.2430573  0.063545172    -2.403385    1.1603277   473649 
  217000    1.0002773   -2.4036341   -2.4036341   -1.2421311  0.065497022   -2.4036341    1.1615031   473638 
  218000   0.99929427   -2.4019711   -2.4019711     -1.24158   0.06768829   -2.4019711     1.160391   473626 
  219000   0.99886983   -2.4015808   -2.4015808   -1.2416532  0.068884633   -2.4015808    1.1599276   473614 
  220000   0.99999633   -2.4028382   -2.4028382   -1.2415731  0.064816121   -2.4028382    1.1612651   473602 
  221000    1.0009852   -2.4025702   -2.4025702   -1.2401273  0.064354813   -2.4025702    1.1624429   473590 
  222000    1.0018564     -2.40356     -2.40356   -1.2400783  0.069545777     -2.40356    1.1634817   473579 
  223000   0.99968285   -2.4009099   -2.4009099    -1.239923  0.071502551   -2.4009099    1.1609869   473567 
  224000   0.99749699   -2.3996409   -2.3996409   -1.2411632  0.074174902   -2.3996409    1.1584777   473555 
  225000   0.99890924   -2.4028543   -2.4028543    -1.242707  0.072670303   -2.4028543    1.1601472   473543 
  226000   0.99804164   -2.4020389   -2.4020389   -1.2428724  0.065154841   -2.4020389    1.1591665   473532 
  227000   0.99790252   -2.4017491   -2.4017491   -1.2427148  0.065017391   -2.4017491    1.1590343   473520 
  228000   0.99875265   -2.4019651   -2.4019651    -1.241914  0.066805767   -2.4019651    1.1600511   473508 
  229000    0.9990098   -2.4021045   -2.4021045   -1.2417253  0.066549002   -2.4021045    1.1603792   473496 
  230000   0.99730328   -2.4012419   -2.4012419    -1.242818  0.067201906   -2.4012419    1.1584239   473485 
  231000   0.99809614   -2.4024161   -2.4024161   -1.2430418   0.06153404   -2.4024161    1.1593743   473473 
  232000   0.99683711   -2.4023933   -2.4023933   -1.2444521  0.063974461   -2.4023933    1.1579411   473461 
  233000   0.99570588    -2.402607    -2.402607   -1.2459506  0.067384817    -2.402607    1.1566564   473449 
  234000   0.99545247   -2.4025281   -2.4025281   -1.2461392  0.066584055   -2.4025281    1.1563889   473438 
  235000    0.9949526   -2.4015194   -2.4015194   -1.2456819  0.066846617   -2.4015194    1.1558375   473426 
  236000   0.99635028   -2.4047576   -2.4047576   -1.2472671  0.064728928   -2.4047576    1.1574905   473414 
  237000   0.99444929   -2.4035029   -2.4035029   -1.2481915  0.068229521   -2.4035029    1.1553114   473402 
  238000   0.99439318   -2.4026427   -2.4026427   -1.2473672  0.069233142   -2.4026427    1.1552755   473390 
  239000   0.99578149   -2.4039834   -2.4039834   -1.2470681  0.060795612   -2.4039834    1.1569153   473379 
  240000   0.99497187   -2.4024239   -2.4024239   -1.2464199  0.064675763   -2.4024239     1.156004   473367 
  241000   0.99722444   -2.4042277   -2.4042277   -1.2455772  0.064441694   -2.4042277    1.1586505   473355 
  242000   0.99657023   -2.4042173   -2.4042173   -1.2462976  0.068153847   -2.4042173    1.1579197   473343 
  243000   0.99541179   -2.4029532   -2.4029532   -1.2463526  0.064715891   -2.4029532    1.1566006   473332 
  244000   0.99649512   -2.4038299   -2.4038299   -1.2459412  0.066903455   -2.4038299    1.1578887   473320 
  245000   0.99813517   -2.4040211   -2.4040211   -1.2441973  0.069374387   -2.4040211    1.1598238   473308 
  246000   0.99835648   -2.4038573   -2.4038573   -1.2437469  0.066487579   -2.4038573    1.1601104   473296 
  247000   0.99687971   -2.4033284   -2.4033284   -1.2449071  0.072194853   -2.4033284    1.1584213   473285 
  248000   0.99926829   -2.4058476   -2.4058476   -1.2446213  0.073841981   -2.4058476    1.1612263   473273 
  249000   0.99894441   -2.4043832   -2.4043832   -1.2435038  0.068812975   -2.4043832    1.1608794   473261 
  250000   0.99915068   -2.4046517   -2.4046517   -1.2435032  0.066553924   -2.4046517    1.1611486   473249 
  251000   0.99814641   -2.4042949   -2.4042949   -1.2442865  0.068546266   -2.4042949    1.1600084   473238 
  252000    0.9989559   -2.4052945   -2.4052945   -1.2443159  0.072398825   -2.4052945    1.1609786   473226 
  253000    0.9992319    -2.405955    -2.405955   -1.2446262  0.067258703    -2.405955    1.1613288   473214 
  254000   0.99755936   -2.4053698   -2.4053698   -1.2459554  0.062965367   -2.4053698    1.1594144   473202 
  255000   0.99801376   -2.4059482   -2.4059482   -1.2459763  0.071284431   -2.4059482    1.1599719   473190 
  256000   0.99763707   -2.4055523   -2.4055523   -1.2459912  0.070075453   -2.4055523     1.159561   473179 
  257000     0.998516   -2.4062749   -2.4062749   -1.2456629  0.071999905   -2.4062749    1.1606121   473167 
  258000   0.99615484   -2.4042503   -2.4042503   -1.2463534  0.068824114   -2.4042503     1.157897   473155 
  259000   0.99636929   -2.4034264   -2.4034264   -1.2452508  0.070726107   -2.4034264    1.1581756   473143 
  260000   0.99742368   -2.4046971   -2.4046971   -1.2452689  0.065957168   -2.4046971    1.1594282   473132 
  261000   0.99833725   -2.4058987   -2.4058987   -1.2453791  0.070397846   -2.4058987    1.1605196   473120 
  262000   0.99633533   -2.4031351   -2.4031351   -1.2449133  0.067302381   -2.4031351    1.1582218   473108 
  263000   0.99724207   -2.4030766   -2.4030766   -1.2437713  0.067964704   -2.4030766    1.1593053   473096 
  264000   0.99586413   -2.4032645   -2.4032645   -1.2455342  0.064091773   -2.4032645    1.1577303   473085 
  265000   0.99620104   -2.4044878   -2.4044878   -1.2463364  0.071440268   -2.4044878    1.1581514   473073 
  266000   0.99551249   -2.4035357   -2.4035357   -1.2461555  0.068039664   -2.4035357    1.1573803   473061 
  267000   0.99469036   -2.4018787   -2.4018787   -1.2454249  0.075488903   -2.4018787    1.1564538   473049 
  268000   0.99459555   -2.4028253   -2.4028253   -1.2464548  0.054914686   -2.4028253    1.1563704   473038 
  269000   0.99344816   -2.4020984   -2.4020984   -1.2470327  0.070289252   -2.4020984    1.1550657   473026 
  270000   0.99219127   -2.4011577   -2.4011577    -1.247524   0.06555953   -2.4011577    1.1536336   473014 
  271000   0.99474489   -2.4043845   -2.4043845   -1.2477524  0.060584635   -2.4043845    1.1566321   473002 
  272000   0.99451466   -2.4047008   -2.4047008    -1.248307  0.063847214   -2.4047008    1.1563937   472990 
  273000   0.99409672   -2.4033864   -2.4033864   -1.2474517  0.062922593   -2.4033864    1.1559347   472979 
  274000   0.99294352   -2.4016366   -2.4016366   -1.2470136  0.065234223   -2.4016366     1.154623   472967 
  275000   0.99263105   -2.4016604   -2.4016604   -1.2473715   0.06208206   -2.4016604    1.1542889   472955 
  276000   0.99237532   -2.4000137   -2.4000137   -1.2459928  0.065631068   -2.4000137    1.1540208   472943 
  277000    0.9927702   -2.4004747   -2.4004747   -1.2459678  0.068877431   -2.4004747    1.1545069   472932 
  278000    0.9939752   -2.4022892   -2.4022892   -1.2463516  0.068352517   -2.4022892    1.1559375   472920 
  279000   0.99647702    -2.403105    -2.403105   -1.2442286  0.062940132    -2.403105    1.1588764   472908 
  280000   0.99593362    -2.402635    -2.402635   -1.2443611  0.060501782    -2.402635    1.1582739   472896 
  281000   0.99617322   -2.4030814   -2.4030814   -1.2445019  0.070450412   -2.4030814    1.1585795   472885 
  282000   0.99510887   -2.4019627   -2.4019627   -1.2445918  0.069166015   -2.4019627     1.157371   472873 
  283000   0.99529919   -2.4020535   -2.4020535   -1.2444318  0.066278335   -2.4020535    1.1576217   472861 
  284000   0.99608244   -2.4024557   -2.4024557   -1.2438936  0.071020963   -2.4024557    1.1585621   472849 
  285000   0.99679508   -2.4034085   -2.4034085   -1.2439905   0.06657592   -2.4034085    1.1594179   472838 
  286000   0.99558889   -2.4032708   -2.4032708   -1.2452265  0.064885932   -2.4032708    1.1580443   472826 
  287000    0.9972464   -2.4047211   -2.4047211   -1.2447194  0.058406244   -2.4047211    1.1600018   472814 
  288000   0.99721065   -2.4039162   -2.4039162   -1.2439266  0.063600404   -2.4039162    1.1599896   472802 
  289000   0.99901146   -2.4051376   -2.4051376   -1.2430238  0.063988542   -2.4051376    1.1621139   472790 
  290000   0.99645131   -2.4015589   -2.4015589   -1.2423962   0.06859755   -2.4015589    1.1591627   472779 
  291000   0.99617196   -2.4021143   -2.4021143   -1.2432471  0.065005353   -2.4021143    1.1588672   472767 
  292000    0.9956112    -2.402333    -2.402333   -1.2440888  0.060436572    -2.402333    1.1582442   472755 
  293000   0.99600758   -2.4027539   -2.4027539   -1.2440191  0.066527396   -2.4027539    1.1587348   472743 
  294000   0.99553445   -2.4021224   -2.4021224   -1.2439111   0.06515526   -2.4021224    1.1582113   472732 
  295000   0.99454989   -2.4010753   -2.4010753   -1.2439801  0.067391686   -2.4010753    1.1570952   472720 
  296000   0.99580891   -2.4024097   -2.4024097   -1.2438203  0.070924697   -2.4024097    1.1585894   472708 
  297000   0.99638044   -2.4035982   -2.4035982   -1.2443144  0.069860712   -2.4035982    1.1592838   472696 
  298000   0.99812263   -2.4044739   -2.4044739    -1.243136  0.071182909   -2.4044739    1.1613379   472685 
  299000    0.9951884   -2.4021904   -2.4021904   -1.2442372  0.070778449   -2.4021904    1.1579532   472673 
  300000   0.99660816   -2.4039034   -2.4039034   -1.2442687  0.067695134   -2.4039034    1.1596346   472661 
  301000   0.99605544   -2.4034994   -2.4034994   -1.2444785  0.065309256   -2.4034994    1.1590209   472649 
  302000     0.995907    -2.403271    -2.403271   -1.2443959  0.070076871    -2.403271    1.1588752   472638 
  303000   0.99537105   -2.4037832   -2.4037832   -1.2455023  0.069533997   -2.4037832    1.1582809   472626 
  304000   0.99488904   -2.4026879   -2.4026879   -1.2449385  0.068711358   -2.4026879    1.1577494   472614 
  305000    0.9954575   -2.4023751   -2.4023751   -1.2439347  0.067907721   -2.4023751    1.1584403   472602 
  306000   0.99641119   -2.4037713   -2.4037713   -1.2441916  0.065128375   -2.4037713    1.1595796   472590 
  307000   0.99696008   -2.4047125   -2.4047125   -1.2444671  0.065539892   -2.4047125    1.1602454   472579 
  308000   0.99470107   -2.4020189   -2.4020189   -1.2443731   0.07333604   -2.4020189    1.1576458   472567 
  309000   0.99401743   -2.4018213   -2.4018213   -1.2449418  0.064851125   -2.4018213    1.1568795   472555 
  310000   0.99370272   -2.4015017   -2.4015017   -1.2449591  0.064669282   -2.4015017    1.1565426   472543 
  311000   0.99353033   -2.4021847   -2.4021847   -1.2458158  0.062761017   -2.4021847    1.1563689   472532 
  312000   0.99136015   -2.4002649   -2.4002649   -1.2463926  0.066807106   -2.4002649    1.1538723   472520 
  313000   0.99288751   -2.4010276   -2.4010276   -1.2453481  0.064446874   -2.4010276    1.1556794   472508 
  314000   0.99449563   -2.4033174   -2.4033174   -1.2457368   0.06205676   -2.4033174    1.1575806   472496 
  315000   0.99161926   -2.4002054   -2.4002054    -1.245946  0.064908281   -2.4002054    1.1542594   472485 
  316000   0.99249675   -2.4017969   -2.4017969   -1.2464867  0.069667562   -2.4017969    1.1553102   472473 
  317000   0.99228226   -2.4007351   -2.4007351   -1.2456453   0.06538798   -2.4007351    1.1550898   472461 
  318000   0.99128575   -2.4001699   -2.4001699   -1.2462108   0.06329539   -2.4001699    1.1539591   472449 
  319000   0.99339577   -2.4016299   -2.4016299   -1.2451875  0.059415871   -2.4016299    1.1564424   472438 
  320000   0.99173359   -2.3998986   -2.3998986   -1.2453619  0.067959778   -2.3998986    1.1545367   472426 
  321000   0.99478531     -2.40441     -2.40441   -1.2462912  0.063898281     -2.40441    1.1581188   472414 
  322000    0.9936009   -2.4012735   -2.4012735   -1.2445042  0.066477078   -2.4012735    1.1567693   472402 
  323000   0.99408766    -2.402481    -2.402481   -1.2451156  0.065330313    -2.402481    1.1573654   472390 
  324000   0.99241695   -2.4006862   -2.4006862   -1.2452391  0.068135612   -2.4006862    1.1554472   472379 
  325000   0.99499275   -2.4032809   -2.4032809   -1.2448053  0.065800228   -2.4032809    1.1584755   472367 
  326000   0.99514328   -2.4035016   -2.4035016   -1.2448213  0.066140745   -2.4035016    1.1586802   472355 
  327000   0.99375611   -2.4032076   -2.4032076   -1.2461131  0.067283748   -2.4032076    1.1570945   472343 
  328000   0.99286285   -2.4015219   -2.4015219   -1.2454406  0.064972547   -2.4015219    1.1560813   472332 
  329000   0.99343657   -2.4021336   -2.4021336   -1.2453548  0.065434901   -2.4021336    1.1567788   472320 
  330000   0.99507455   -2.4037647   -2.4037647   -1.2450492  0.067351929   -2.4037647    1.1587155   472308 
  331000   0.99613757   -2.4052068   -2.4052068    -1.245224  0.068789137   -2.4052068    1.1599828   472296 
  332000   0.99258049   -2.4025656   -2.4025656    -1.246698  0.072163883   -2.4025656    1.1558676   472285 
  333000   0.99502644   -2.4039175   -2.4039175   -1.2451722  0.068499278   -2.4039175    1.1587454   472273 
  334000   0.99611423   -2.4053546   -2.4053546    -1.245313  0.066293137   -2.4053546    1.1600416   472261 
  335000   0.99364674   -2.4026503   -2.4026503   -1.2454529   0.06096884   -2.4026503    1.1571974   472249 
  336000   0.99202205    -2.401446    -2.401446   -1.2461137  0.066111658    -2.401446    1.1553322   472238 
  337000    0.9926155   -2.4017117   -2.4017117   -1.2456589  0.072593787   -2.4017117    1.1560528   472226 
  338000   0.99553628   -2.4051722   -2.4051722   -1.2456883  0.065154205   -2.4051722    1.1594839   472214 
  339000    0.9930837   -2.4023782   -2.4023782   -1.2457214  0.066437461   -2.4023782    1.1566568   472202 
  340000   0.99491337   -2.4046563   -2.4046563   -1.2458389  0.064048187   -2.4046563    1.1588173   472190 
  341000   0.99513122   -2.4038683   -2.4038683   -1.2447702  0.065280948   -2.4038683    1.1590981   472179 
  342000   0.99431584   -2.4043882   -2.4043882   -1.2462104  0.064077407   -2.4043882    1.1581778   472167 
  343000   0.99477462   -2.4052466   -2.4052466    -1.246505  0.069106797   -2.4052466    1.1587416   472155 
  344000   0.99457593   -2.4050833   -2.4050833   -1.2465436  0.069507865   -2.4050833    1.1585396   472143 
  345000    0.9939591   -2.4049474   -2.4049474   -1.2470993   0.06814199   -2.4049474    1.1578481   472132 
  346000   0.99489525    -2.405139    -2.405139    -1.246171  0.063434827    -2.405139     1.158968   472120 
  347000   0.99550213   -2.4056284   -2.4056284   -1.2459239  0.062452277   -2.4056284    1.1597045   472108 
  348000   0.99527719   -2.4056028   -2.4056028   -1.2461309  0.061198842   -2.4056028    1.1594719   472096 
  349000   0.99166877   -2.4026271   -2.4026271    -1.247332  0.067701406   -2.4026271    1.1552951   472085 
  350000   0.99215458   -2.4039596   -2.4039596   -1.2480691  0.066304794   -2.4039596    1.1558905   472073 
  351000   0.99303731   -2.4049755   -2.4049755   -1.2480272  0.070082308   -2.4049755    1.1569483   472061 
  352000   0.99140879   -2.4031844   -2.4031844   -1.2481041  0.071048589   -2.4031844    1.1550803   472049 
  353000   0.99217684   -2.4041512   -2.4041512   -1.2481491  0.066484768   -2.4041512    1.1560021   472038 
  354000   0.99305858   -2.4042193   -2.4042193   -1.2471605  0.063598576   -2.4042193    1.1570589   472026 
  355000   0.99126343   -2.4024506   -2.4024506   -1.2474539  0.064701068   -2.4024506    1.1549966   472014 
  356000    0.9936739   -2.4044141   -2.4044141   -1.2465795  0.064314398   -2.4044141    1.1578347   472002 
  357000   0.99218413   -2.4028407   -2.4028407   -1.2467125  0.073430545   -2.4028407    1.1561282   471990 
  358000   0.99234125   -2.4025966   -2.4025966   -1.2462584  0.061253802   -2.4025966    1.1563382   471979 
  359000   0.99268469   -2.4031473   -2.4031473   -1.2463795  0.065706961   -2.4031473    1.1567678   471967 
  360000   0.99257206   -2.4027864   -2.4027864   -1.2461204   0.06722453   -2.4027864     1.156666   471955 
  361000   0.99252386   -2.4032824   -2.4032824   -1.2466432  0.066869151   -2.4032824    1.1566392   471943 
  362000   0.99040681   -2.4018134   -2.4018134   -1.2476145  0.064183432   -2.4018134     1.154199   471932 
  363000    0.9923664   -2.4041838   -2.4041838   -1.2476717  0.062496862   -2.4041838    1.1565121   471920 
  364000   0.99366802   -2.4046878   -2.4046878   -1.2466293  0.061450493   -2.4046878    1.1580584   471908 
  365000   0.99147057   -2.4025452   -2.4025452   -1.2470183  0.064563151   -2.4025452    1.1555268   471896 
  366000   0.99229643   -2.4031553   -2.4031553    -1.246639  0.061749353   -2.4031553    1.1565163   471885 
  367000   0.99119994   -2.4026098   -2.4026098   -1.2473421  0.067606276   -2.4026098    1.1552677   471873 
  368000   0.99230716   -2.4035115   -2.4035115   -1.2469239  0.065656048   -2.4035115    1.1565876   471861 
  369000   0.99304884   -2.4053964   -2.4053964   -1.2479148  0.062819068   -2.4053964    1.1574815   471849 
  370000   0.99305434   -2.4043329   -2.4043329    -1.246818   0.06288537   -2.4043329    1.1575149   471838 
  371000    0.9917425   -2.4029338   -2.4029338   -1.2469186  0.066377289   -2.4029338    1.1560152   471826 
  372000   0.99210892   -2.4034496   -2.4034496   -1.2469778  0.064406945   -2.4034496    1.1564718   471814 
  373000   0.99261005   -2.4030243   -2.4030243   -1.2459389  0.062154841   -2.4030243    1.1570853   471802 
  374000   0.99107828     -2.40219     -2.40219   -1.2468609  0.068829039     -2.40219    1.1553291   471790 
  375000   0.99103321   -2.4012234   -2.4012234   -1.2459199  0.066180314   -2.4012234    1.1553035   471779 
  376000    0.9927024   -2.4043078   -2.4043078    -1.247029  0.068463506   -2.4043078    1.1572788   471767 
  377000   0.99247499   -2.4038815   -2.4038815   -1.2468384  0.071507209   -2.4038815    1.1570432   471755 
  378000   0.99345283   -2.4046468   -2.4046468   -1.2464342  0.068647955   -2.4046468    1.1582126   471743 
  379000   0.99428736    -2.405319    -2.405319   -1.2461065  0.069095665    -2.405319    1.1592126   471732 
  380000   0.99444805   -2.4057116   -2.4057116   -1.2462822  0.064446643   -2.4057116    1.1594294   471720 
  381000   0.99192678   -2.4022475   -2.4022475   -1.2457282  0.064504303   -2.4022475    1.1565193   471708 
  382000   0.99326654   -2.4033294   -2.4033294   -1.2452186  0.065099273   -2.4033294    1.1581108   471696 
  383000   0.99330121   -2.4035203   -2.4035203   -1.2453421  0.071728408   -2.4035203    1.1581782   471685 
  384000   0.99135384   -2.4026596   -2.4026596   -1.2467225  0.064031637   -2.4026596     1.155937   471673 
  385000    0.9921768   -2.4034746   -2.4034746   -1.2465486  0.073008788   -2.4034746    1.1569261   471661 
  386000    0.9935279   -2.4049775   -2.4049775   -1.2464465  0.065199821   -2.4049775     1.158531   471649 
  387000   0.99144342    -2.403468    -2.403468   -1.2473407  0.068285798    -2.403468    1.1561273   471638 
  388000   0.99180122   -2.4034234   -2.4034234   -1.2468495  0.071515573   -2.4034234    1.1565739   471626 
  389000    0.9928421   -2.4039719   -2.4039719   -1.2461547  0.068011798   -2.4039719    1.1578172   471614 
  390000   0.99286637   -2.4046544   -2.4046544   -1.2467794  0.068688341   -2.4046544     1.157875   471602 
  391000   0.99400094   -2.4057504   -2.4057504   -1.2465228  0.062345935   -2.4057504    1.1592276   471590 
  392000   0.99030587   -2.4012771   -2.4012771   -1.2463318  0.066487481   -2.4012771    1.1549453   471579 
  393000   0.99126787    -2.403769    -2.403769   -1.2476724  0.060343782    -2.403769    1.1560966   471567 
  394000   0.99173787   -2.4044686   -2.4044686   -1.2477944  0.064607252   -2.4044686    1.1566742   471555 
  395000   0.99121493   -2.4036185   -2.4036185   -1.2475248   0.06806646   -2.4036185    1.1560937   471543 
  396000   0.99082145   -2.4026506   -2.4026506   -1.2469888  0.067984785   -2.4026506    1.1556617   471532 
  397000   0.99037381    -2.401752    -2.401752    -1.246583  0.065997409    -2.401752     1.155169   471520 
  398000   0.99101201   -2.4041338   -2.4041338    -1.248191  0.062160947   -2.4041338    1.1559428   471508 
  399000   0.99008318   -2.4039734   -2.4039734   -1.2490846  0.064659139   -2.4039734    1.1548888   471496 
  400000   0.99178769   -2.4034006   -2.4034006   -1.2464965  0.066397747   -2.4034006     1.156904   471485 
  401000   0.99208147   -2.4040978   -2.4040978   -1.2468216  0.062567391   -2.4040978    1.1572762   471473 
  402000   0.99266971   -2.4056148   -2.4056148    -1.247623  0.066533896   -2.4056148    1.1579918   471461 
  403000   0.99092256   -2.4037022   -2.4037022    -1.247719  0.068658952   -2.4037022    1.1559831   471449 
  404000   0.99009954   -2.4033083   -2.4033083   -1.2482584  0.072422673   -2.4033083      1.15505   471438 
  405000   0.99037699   -2.4042831   -2.4042831     -1.24888  0.069217362   -2.4042831    1.1554031   471426 
  406000    0.9913687   -2.4051709   -2.4051709   -1.2485815  0.067598043   -2.4051709    1.1565895   471414 
  407000   0.99118995   -2.4039751   -2.4039751   -1.2475647  0.069443828   -2.4039751    1.1564103   471402 
  408000   0.98952488   -2.4026966   -2.4026966   -1.2481995  0.068515115   -2.4026966    1.1544971   471390 
  409000   0.98985249   -2.4043065   -2.4043065   -1.2494002  0.064054834   -2.4043065    1.1549063   471379 
  410000   0.98976546   -2.4028359   -2.4028359   -1.2480018  0.062907026   -2.4028359    1.1548342   471367 
  411000   0.99221087    -2.406659    -2.406659   -1.2489421  0.065144359    -2.406659    1.1577169   471355 
  412000   0.99095761   -2.4045513   -2.4045513   -1.2482673  0.061669075   -2.4045513     1.156284   471343 
  413000    0.9900091   -2.4032972   -2.4032972    -1.248093  0.068184596   -2.4032972    1.1552042   471332 
  414000   0.98950675   -2.4020291   -2.4020291   -1.2473816   0.06273194   -2.4020291    1.1546474   471320 
  415000   0.98997241   -2.4025668   -2.4025668   -1.2473466  0.063928581   -2.4025668    1.1552202   471308 
  416000   0.99061693   -2.4038632   -2.4038632   -1.2478615  0.062292115   -2.4038632    1.1560018   471296 
  417000   0.98869743   -2.4010394   -2.4010394   -1.2472507  0.070608412   -2.4010394    1.1537887   471285 
  418000   0.98955739   -2.4021822   -2.4021822   -1.2473605  0.064229236   -2.4021822    1.1548217   471273 
  419000   0.98895606   -2.4023868   -2.4023868   -1.2482375  0.065360763   -2.4023868    1.1541493   471261 
  420000    0.9897505   -2.4026853   -2.4026853   -1.2475795  0.066303175   -2.4026853    1.1551059   471249 
  421000   0.98988791   -2.4022103   -2.4022103   -1.2469171  0.061245275   -2.4022103    1.1552932   471238 
  422000   0.98957912   -2.4008842   -2.4008842    -1.245922  0.065071968   -2.4008842    1.1549622   471226 
  423000   0.99233751   -2.4044003   -2.4044003   -1.2461892  0.053384473   -2.4044003    1.1582111   471214 
  424000   0.98825026   -2.4003426   -2.4003426   -1.2468725  0.066288608   -2.4003426      1.15347   471202 
  425000   0.98868653   -2.4019688   -2.4019688   -1.2479601  0.060946117   -2.4019688    1.1540086   471190 
  426000   0.98908845   -2.4019489   -2.4019489   -1.2474442  0.065451546   -2.4019489    1.1545047   471179 
  427000   0.99110153   -2.4046313   -2.4046313   -1.2477473  0.065888884   -2.4046313    1.1568839   471167 
  428000   0.99057222   -2.4029356   -2.4029356     -1.24664  0.064081279   -2.4029356    1.1562955   471155 
  429000   0.98919448    -2.402154    -2.402154   -1.2474373  0.068176985    -2.402154    1.1547167   471143 
  430000    0.9880225   -2.4009241   -2.4009241   -1.2475486  0.061247238   -2.4009241    1.1533755   471132 
  431000   0.98934489   -2.4023282   -2.4023282   -1.2473795  0.068076602   -2.4023282    1.1549487   471120 
  432000    0.9900499    -2.402588    -2.402588   -1.2467869  0.064339763    -2.402588    1.1558011   471108 
  433000   0.99117392   -2.4046233   -2.4046233   -1.2474805  0.068840541   -2.4046233    1.1571428   471096 
  434000   0.98890145   -2.4020637   -2.4020637    -1.247547  0.062101133   -2.4020637    1.1545168   471085 
  435000   0.98974792   -2.4027581   -2.4027581   -1.2472237  0.063579931   -2.4027581    1.1555344   471073 
  436000   0.98962487   -2.4031526   -2.4031526   -1.2477324  0.066519046   -2.4031526    1.1554202   471061 
  437000   0.98892785   -2.4021827   -2.4021827   -1.2475469  0.061831644   -2.4021827    1.1546358   471049 
  438000   0.99113242   -2.4047269   -2.4047269   -1.2474901  0.059825138   -2.4047269    1.1572368   471038 
  439000   0.99081537   -2.4041831   -2.4041831    -1.247287  0.062555668   -2.4041831    1.1568961   471026 
  440000   0.99138426   -2.4060339   -2.4060339    -1.248444    0.0655601   -2.4060339    1.1575898   471014 
  441000    0.9922509   -2.4063035   -2.4063035   -1.2476722  0.061590386   -2.4063035    1.1586313   471002 
  442000   0.98918893   -2.4027544   -2.4027544    -1.247669  0.060530638   -2.4027544    1.1550853   470990 
  443000   0.99073549   -2.4032791   -2.4032791   -1.2463608   0.06442304   -2.4032791    1.1569183   470979 
  444000   0.99016788   -2.4031725   -2.4031725   -1.2468875  0.069624961   -2.4031725    1.1562849   470967 
  445000   0.99201397    -2.405143    -2.405143   -1.2466728  0.069134533    -2.405143    1.1584702   470955 
  446000   0.99307851   -2.4073558   -2.4073558   -1.2476129  0.066448991   -2.4073558    1.1597429   470943 
  447000   0.99075256   -2.4064596   -2.4064596   -1.2494059  0.067975895   -2.4064596    1.1570537   470932 
  448000   0.99083298    -2.405526    -2.405526   -1.2483489  0.066125583    -2.405526    1.1571771   470920 
  449000   0.98974737   -2.4058284   -2.4058284   -1.2498897  0.063644999   -2.4058284    1.1559387   470908 
  450000   0.98835166   -2.4035386   -2.4035386   -1.2492006   0.06593824   -2.4035386     1.154338   470896 
  451000   0.98949483   -2.4036822   -2.4036822    -1.247982   0.06297134   -2.4036822    1.1557002   470885 
  452000   0.98932343   -2.4034521   -2.4034521   -1.2479227  0.054874621   -2.4034521    1.1555294   470873 
  453000   0.98711937   -2.4014811   -2.4014811   -1.2484966  0.070518665   -2.4014811    1.1529845   470861 
  454000   0.98839748   -2.4039096   -2.4039096   -1.2494029  0.064378146   -2.4039096    1.1545068   470849 
  455000   0.98822082    -2.404048    -2.404048   -1.2497206  0.063600537    -2.404048    1.1543274   470838 
  456000   0.98888215   -2.4038487   -2.4038487   -1.2487194  0.065769665   -2.4038487    1.1551293   470826 
  457000   0.98942821   -2.4046063   -2.4046063   -1.2488097  0.062249438   -2.4046063    1.1557966   470814 
  458000   0.98872299   -2.4037212   -2.4037212    -1.248719  0.063144305   -2.4037212    1.1550023   470802 
  459000   0.98891812   -2.4044836   -2.4044836   -1.2492239  0.063370194   -2.4044836    1.1552597   470790 
  460000   0.98720221   -2.4026078   -2.4026078   -1.2493257  0.063256806   -2.4026078    1.1532821   470779 
  461000   0.98666063   -2.4020757   -2.4020757   -1.2493969  0.063901766   -2.4020757    1.1526788   470767 
  462000    0.9878876   -2.4027742   -2.4027742   -1.2486326  0.061056301   -2.4027742    1.1541416   470755 
  463000   0.98945982   -2.4042051   -2.4042051   -1.2481972  0.061753952   -2.4042051    1.1560079   470743 
  464000   0.98839883   -2.4038885   -2.4038885   -1.2490932  0.067538031   -2.4038885    1.1547953   470732 
  465000   0.99057795   -2.4060276   -2.4060276   -1.2486568   0.05968436   -2.4060276    1.1573708   470720 
  466000   0.98913046   -2.4044226   -2.4044226   -1.2487136  0.063214141   -2.4044226     1.155709   470708 
  467000   0.98919735   -2.4053369   -2.4053369   -1.2495203  0.062114471   -2.4053369    1.1558166   470696 
  468000   0.98890964   -2.4048666   -2.4048666   -1.2493591  0.064223406   -2.4048666    1.1555075   470685 
  469000   0.98847021   -2.4044908   -2.4044908   -1.2494673  0.066811876   -2.4044908    1.1550235   470673 
  470000   0.98701331   -2.4031306   -2.4031306   -1.2497801  0.064194266   -2.4031306    1.1533505   470661 
  471000   0.98576642   -2.4006319   -2.4006319   -1.2487091  0.066419641   -2.4006319    1.1519228   470649 
  472000   0.98836652    -2.403738    -2.403738   -1.2487498  0.063277495    -2.403738    1.1549882   470638 
  473000   0.99001453   -2.4049422   -2.4049422   -1.2479987  0.068499444   -2.4049422    1.1569435   470626 
  474000   0.98880381   -2.4033824   -2.4033824   -1.2478243  0.065378515   -2.4033824    1.1555581   470614 
  475000   0.98920292   -2.4046762   -2.4046762   -1.2486222  0.058898802   -2.4046762     1.156054   470602 
  476000   0.98953842   -2.4052132   -2.4052132   -1.2487376  0.068020189   -2.4052132    1.1564756   470590 
  477000   0.98917043   -2.4036672   -2.4036672   -1.2475947   0.06307176   -2.4036672    1.1560725   470579 
  478000   0.99018216   -2.4046341   -2.4046341   -1.2473497  0.061438575   -2.4046341    1.1572845   470567 
  479000   0.98860183    -2.403631    -2.403631    -1.248164  0.067544064    -2.403631    1.1554669   470555 
  480000   0.98974528   -2.4038639   -2.4038639    -1.247031  0.062373833   -2.4038639    1.1568329   470543 
  481000   0.98875658   -2.4024589   -2.4024589   -1.2467546  0.066707463   -2.4024589    1.1557043   470532 
  482000    0.9883418    -2.402679    -2.402679   -1.2474301  0.070426375    -2.402679    1.1552489   470520 
  483000   0.98891479   -2.4042822   -2.4042822   -1.2483341   0.05704351   -2.4042822    1.1559482   470508 
  484000   0.98944816   -2.4043107   -2.4043107   -1.2477096  0.064848638   -2.4043107    1.1566011   470496 
  485000   0.98751779   -2.4040556   -2.4040556   -1.2496839  0.063695217   -2.4040556    1.1543716   470485 
  486000   0.98760985   -2.4037519   -2.4037519   -1.2492432  0.066046252   -2.4037519    1.1545087   470473 
  487000   0.98680876   -2.4033916   -2.4033916     -1.24979  0.063585408   -2.4033916    1.1536017   470461 
  488000   0.98649071   -2.4035975   -2.4035975   -1.2503382  0.062187846   -2.4035975    1.1532593   470449 
  489000   0.98786887   -2.4041375   -2.4041375   -1.2492401  0.059396219   -2.4041375    1.1548974   470438 
  490000    0.9881658    -2.404942    -2.404942    -1.249668  0.065575896    -2.404942     1.155274   470426 
  491000   0.98728183   -2.4039262   -2.4039262   -1.2496562  0.063127911   -2.4039262      1.15427   470414 
  492000   0.98671817    -2.402083    -2.402083   -1.2484426  0.068608744    -2.402083    1.1536404   470402 
  493000   0.98717839   -2.4028059   -2.4028059    -1.248598  0.065085364   -2.4028059    1.1542079   470390 
  494000   0.98718245    -2.403269    -2.403269   -1.2490293  0.068208006    -2.403269    1.1542397   470379 
  495000   0.98734487   -2.4032551   -2.4032551    -1.248796  0.065420873   -2.4032551     1.154459   470367 
  496000   0.98849545    -2.403785    -2.403785   -1.2479511  0.067600928    -2.403785    1.1558339   470355 
  497000    0.9881136   -2.4037077   -2.4037077   -1.2482909  0.067349306   -2.4037077    1.1554168   470343 
  498000    0.9874964   -2.4031736   -2.4031736   -1.2484514  0.064475253   -2.4031736    1.1547221   470332 
  499000   0.98709737   -2.4026256   -2.4026256   -1.2483406   0.06494411   -2.4026256     1.154285   470320 
  500000   0.98674218   -2.4027647   -2.4027647   -1.2488656    0.0649283   -2.4027647    1.1538991   470308 
  501000   0.98694184   -2.4033848   -2.4033848   -1.2492227  0.058238242   -2.4033848     1.154162   470296 
  502000   0.98757007   -2.4031912   -2.4031912   -1.2482675   0.06943892   -2.4031912    1.1549237   470285 
  503000   0.98731397   -2.4036647   -2.4036647    -1.249011  0.060984114   -2.4036647    1.1546537   470273 
  504000   0.98739212   -2.4034016   -2.4034016    -1.248627  0.065628912   -2.4034016    1.1547745   470261 
  505000   0.98787202   -2.4036697   -2.4036697   -1.2483044  0.059147345   -2.4036697    1.1553653   470249 
  506000   0.98752196   -2.4034508   -2.4034508   -1.2484679   0.06349692   -2.4034508    1.1549829   470238 
  507000   0.98726745   -2.4043877   -2.4043877    -1.249673  0.068318324   -2.4043877    1.1547147   470226 
  508000   0.98772414   -2.4055953   -2.4055953    -1.250317  0.056926711   -2.4055953    1.1552783   470214 
  509000    0.9874542   -2.4042768   -2.4042768   -1.2492848  0.065666678   -2.4042768     1.154992   470202 
  510000   0.98777713   -2.4045691   -2.4045691   -1.2491698  0.065922562   -2.4045691    1.1553992   470190 
  511000   0.98695451   -2.4037579   -2.4037579   -1.2492938  0.065174113   -2.4037579     1.154464   470179 
  512000   0.98680436   -2.4035763   -2.4035763   -1.2492585  0.065383749   -2.4035763    1.1543179   470167 
  513000   0.98667539   -2.4032347   -2.4032347   -1.2490383  0.062811003   -2.4032347    1.1541965   470155 
  514000   0.98647699   -2.4029904   -2.4029904   -1.2489966  0.062085227   -2.4029904    1.1539938   470143 
  515000   0.98633546   -2.4032402   -2.4032402   -1.2493849  0.055753354   -2.4032402    1.1538553   470132 
  516000   0.98699303   -2.4043834   -2.4043834   -1.2497294  0.061616704   -2.4043834     1.154654   470120 
  517000   0.98481978   -2.4027746   -2.4027746   -1.2506336  0.064826985   -2.4027746     1.152141   470108 
  518000   0.98288942    -2.400388    -2.400388    -1.250476   0.06601463    -2.400388     1.149912   470096 
  519000    0.9851955   -2.4028218   -2.4028218   -1.2501849  0.062947183   -2.4028218    1.1526369   470085 
  520000   0.98516224   -2.4023766   -2.4023766   -1.2497491  0.061916268   -2.4023766    1.1526274   470073 
  521000   0.98450056   -2.4015428   -2.4015428   -1.2496601  0.065396596   -2.4015428    1.1518827   470061 
  522000   0.98537976   -2.4020362   -2.4020362   -1.2490954  0.065806741   -2.4020362    1.1529408   470049 
  523000   0.98571886   -2.4026011   -2.4026011   -1.2492365  0.064082119   -2.4026011    1.1533645   470038 
  524000    0.9867156   -2.4024872   -2.4024872   -1.2479269  0.073025177   -2.4024872    1.1545603   470026 
  525000   0.98734193    -2.403121    -2.403121   -1.2477983  0.056590607    -2.403121    1.1553227   470014 
  526000   0.98624898   -2.4009201   -2.4009201   -1.2468468  0.068025895   -2.4009201    1.1540732   470002 
  527000   0.98805526   -2.4025759   -2.4025759   -1.2463596   0.06280451   -2.4025759    1.1562164   469990 
  528000   0.98797889   -2.4027771   -2.4027771    -1.246623  0.063730873   -2.4027771    1.1561541   469979 
  529000   0.98649246   -2.4019666   -2.4019666   -1.2475225  0.064014234   -2.4019666    1.1544441   469967 
  530000   0.98938658   -2.4035284   -2.4035284   -1.2456679  0.065153076   -2.4035284    1.1578605   469955 
  531000   0.98964655   -2.4046733   -2.4046733    -1.246479  0.066264109   -2.4046733    1.1581943   469943 
  532000   0.98819554   -2.4036577   -2.4036577   -1.2471345  0.069485537   -2.4036577    1.1565233   469932 
  533000   0.98697874   -2.4019848   -2.4019848   -1.2468561  0.064101956   -2.4019848    1.1551287   469920 
  534000   0.98656798   -2.4015147   -2.4015147   -1.2468372  0.069316469   -2.4015147    1.1546774   469908 
  535000   0.98827427   -2.4028067   -2.4028067   -1.2461027  0.062582905   -2.4028067     1.156704   469896 
  536000   0.98531225   -2.4015012   -2.4015012    -1.248237  0.064739025   -2.4015012    1.1532642   469885 
  537000   0.98462455   -2.4014557   -2.4014557    -1.248967  0.059089569   -2.4014557    1.1524887   469873 
  538000   0.98454937   -2.4009146   -2.4009146   -1.2484844  0.062808175   -2.4009146    1.1524301   469861 
  539000   0.98414536   -2.4014416   -2.4014416    -1.249455  0.064561534   -2.4014416    1.1519866   469849 
  540000     0.983869    -2.401929    -2.401929   -1.2502389    0.0627481    -2.401929    1.1516901   469838 
  541000   0.98542144   -2.4038412   -2.4038412   -1.2503043  0.065826177   -2.4038412    1.1535368   469826 
  542000   0.98605698   -2.4044585   -2.4044585   -1.2501482   0.06088354   -2.4044585    1.1543103   469814 
  543000   0.98470242   -2.4029388   -2.4029388   -1.2501848  0.062605942   -2.4029388     1.152754   469802 
  544000   0.98630554   -2.4031776   -2.4031776   -1.2485174  0.067172745   -2.4031776    1.1546602   469790 
  545000   0.98501721    -2.401929    -2.401929     -1.24875  0.060552037    -2.401929     1.153179   469779 
  546000   0.98491657   -2.4014056   -2.4014056    -1.248315  0.062092267   -2.4014056    1.1530906   469767 
  547000   0.98706737   -2.4044644   -2.4044644   -1.2488262  0.059014849   -2.4044644    1.1556382   469755 
  548000   0.98525016   -2.4037956   -2.4037956   -1.2502555  0.061267691   -2.4037956    1.1535401   469743 
  549000   0.98472706   -2.4035742   -2.4035742   -1.2506195  0.066684063   -2.4035742    1.1529547   469732 
  550000    0.9854567   -2.4048778   -2.4048778   -1.2510394  0.064554841   -2.4048778    1.1538384   469720 
  551000   0.98490013   -2.4028336   -2.4028336   -1.2496173  0.068037632   -2.4028336    1.1532162   469708 
  552000   0.98572679   -2.4034775   -2.4034775   -1.2492639  0.067928664   -2.4034775    1.1542136   469696 
  553000   0.98431317   -2.4029612   -2.4029612   -1.2503758  0.066042701   -2.4029612    1.1525854   469685 
  554000   0.98551814   -2.4039927   -2.4039927   -1.2499669  0.064732117   -2.4039927    1.1540258   469673 
  555000   0.98653799    -2.405909    -2.405909   -1.2506594   0.06003966    -2.405909    1.1552496   469661 
  556000   0.98579393    -2.406568    -2.406568   -1.2521602  0.064898118    -2.406568    1.1544078   469649 
  557000   0.98615431   -2.4061562   -2.4061562   -1.2512994  0.068695672   -2.4061562    1.1548568   469638 
  558000   0.98485229   -2.4044694   -2.4044694   -1.2511078  0.064710212   -2.4044694    1.1533615   469626 
  559000   0.98392009   -2.4033754   -2.4033754   -1.2510761  0.064568788   -2.4033754    1.1522993   469614 
  560000   0.98419575   -2.4034957   -2.4034957   -1.2508442  0.064392772   -2.4034957    1.1526516   469602 
  561000   0.98362562   -2.4032082   -2.4032082   -1.2511949  0.065855086   -2.4032082    1.1520133   469590 
  562000    0.9850562   -2.4042165   -2.4042165   -1.2505007  0.062143556   -2.4042165    1.1537158   469579 
  563000   0.98506349   -2.4047188   -2.4047188   -1.2509649  0.068262632   -2.4047188    1.1537538   469567 
  564000   0.98800794   -2.4065324   -2.4065324   -1.2493003  0.059108397   -2.4065324    1.1572321   469555 
  565000   0.98531829   -2.4045353   -2.4045353   -1.2504241  0.066708728   -2.4045353    1.1541112   469543 
  566000   0.98450334   -2.4041943   -2.4041943   -1.2510106  0.064432736   -2.4041943    1.1531837   469532 
  567000   0.98660288   -2.4067646   -2.4067646   -1.2510921  0.062724615   -2.4067646    1.1556725   469520 
  568000   0.98706675   -2.4056596   -2.4056596   -1.2494142  0.065073583   -2.4056596    1.1562454   469508 
  569000   0.98589826   -2.4047719   -2.4047719   -1.2498658  0.061008041   -2.4047719    1.1549062   469496 
  570000   0.98523465   -2.4037504   -2.4037504   -1.2495946  0.071305502   -2.4037504    1.1541559   469485 
  571000   0.98678655   -2.4050461   -2.4050461   -1.2490427  0.064847297   -2.4050461    1.1560034   469473 
  572000   0.98476775   -2.4031441   -2.4031441   -1.2494762  0.067859984   -2.4031441    1.1536679   469461 
  573000   0.98538135    -2.403187    -2.403187   -1.2487708  0.068457261    -2.403187    1.1544162   469449 
  574000   0.98528048   -2.4042544   -2.4042544   -1.2499293  0.064733321   -2.4042544    1.1543251   469438 
  575000   0.98609584   -2.4045805   -2.4045805   -1.2492706  0.064663031   -2.4045805    1.1553099   469426 
  576000    0.9844034   -2.4030904   -2.4030904   -1.2497339  0.067757499   -2.4030904    1.1533565   469414 
  577000   0.98499213   -2.4041715   -2.4041715   -1.2500957  0.063590494   -2.4041715    1.1540758   469402 
  578000   0.98349799    -2.401869    -2.401869   -1.2495144  0.064616771    -2.401869    1.1523546   469390 
  579000   0.98364922   -2.4021161   -2.4021161   -1.2495573   0.06528713   -2.4021161    1.1525588   469379 
  580000   0.98545838   -2.4048978   -2.4048978   -1.2501896  0.065024752   -2.4048978    1.1547082   469367 
  581000   0.98328602   -2.4029498   -2.4029498   -1.2507577  0.064938412   -2.4029498    1.1521922   469355 
  582000   0.98388146   -2.4046292   -2.4046292   -1.2517099  0.068486668   -2.4046292    1.1529194   469343 
  583000   0.98451948   -2.4050286   -2.4050286   -1.2513346  0.062750513   -2.4050286     1.153694   469332 
  584000   0.98353291   -2.4043116   -2.4043116   -1.2517441  0.064455998   -2.4043116    1.1525674   469320 
  585000   0.98277144    -2.403823    -2.403823   -1.2521185  0.063199601    -2.403823    1.1517045   469308 
  586000   0.98274558    -2.403871    -2.403871   -1.2521674  0.060398365    -2.403871    1.1517037   469296 
  587000   0.98282802   -2.4039858   -2.4039858   -1.2521585  0.062254664   -2.4039858    1.1518273   469285 
  588000   0.98213707   -2.4035318   -2.4035318   -1.2524849  0.055052998   -2.4035318     1.151047   469273 
  589000   0.98254626   -2.4038746   -2.4038746   -1.2523187  0.057751362   -2.4038746     1.151556   469261 
  590000   0.98349507   -2.4037239   -2.4037239   -1.2510265  0.062297608   -2.4037239    1.1526975   469249 
  591000   0.98433187   -2.4046416   -2.4046416   -1.2509363  0.071678919   -2.4046416    1.1537053   469238 
  592000   0.98507576   -2.4061537   -2.4061537    -1.251547  0.059964161   -2.4061537    1.1546067   469226 
  593000   0.98408958   -2.4051788   -2.4051788   -1.2516985  0.063909369   -2.4051788    1.1534803   469214 
  594000   0.98379361   -2.4048776   -2.4048776   -1.2517147   0.06340106   -2.4048776    1.1531629   469202 
  595000   0.98342243   -2.4041392   -2.4041392    -1.251382   0.06729531   -2.4041392    1.1527573   469190 
  596000   0.98505667   -2.4048745   -2.4048745   -1.2501746  0.061246355   -2.4048745       1.1547   469179 
  597000   0.98296561   -2.4035333   -2.4035333   -1.2512551  0.063933417   -2.4035333    1.1522783   469167 
  598000   0.98586518   -2.4058657   -2.4058657   -1.2501589  0.061353666   -2.4058657    1.1557068   469155 
  599000   0.98571027   -2.4052094   -2.4052094   -1.2496546  0.067222349   -2.4052094    1.1555548   469143 
  600000   0.98665246   -2.4071291   -2.4071291   -1.2504426  0.062061497   -2.4071291    1.1566865   469132 
  601000   0.98577778   -2.4067652   -2.4067652   -1.2510746    0.0647982   -2.4067652    1.1556906   469120 
  602000   0.98329335   -2.4030064   -2.4030064   -1.2501989  0.066591713   -2.4030064    1.1528074   469108 
  603000   0.98318111   -2.4029502   -2.4029502   -1.2502449  0.059087785   -2.4029502    1.1527053   469096 
  604000   0.98403395    -2.403297    -2.403297   -1.2495647  0.065724762    -2.403297    1.1537323   469085 
  605000   0.98442698   -2.4038288   -2.4038288   -1.2496062  0.057185986   -2.4038288    1.1542226   469073 
  606000   0.98451553   -2.4044437   -2.4044437   -1.2500878  0.069986479   -2.4044437     1.154356   469061 
  607000   0.98489578   -2.4050967   -2.4050967   -1.2502653  0.065837363   -2.4050967    1.1548313   469049 
  608000    0.9855403   -2.4066997   -2.4066997   -1.2510855   0.06536359   -2.4066997    1.1556142   469038 
  609000   0.98476935   -2.4063324   -2.4063324   -1.2515926  0.067049443   -2.4063324    1.1547397   469026 
  610000   0.98439326   -2.4050895   -2.4050895   -1.2507613  0.068901892   -2.4050895    1.1543283   469014 
  611000   0.98472105   -2.4053887   -2.4053887   -1.2506465  0.073224664   -2.4053887    1.1547422   469002 
  612000   0.98480506   -2.4054015   -2.4054015   -1.2505313  0.060609101   -2.4054015    1.1548702   468990 
  613000   0.98372188   -2.4050367   -2.4050367   -1.2514097  0.058198715   -2.4050367    1.1536271   468979 
  614000   0.98444606   -2.4060819   -2.4060819    -1.251576    0.0623871   -2.4060819    1.1545059   468967 
  615000   0.98312185    -2.404171    -2.404171   -1.2511886  0.066308017    -2.404171    1.1529824   468955 
  616000   0.98389116   -2.4062574   -2.4062574   -1.2523433   0.06444433   -2.4062574    1.1539142   468943 
  617000   0.98299358   -2.4058505   -2.4058505   -1.2529619  0.061509995   -2.4058505    1.1528885   468932 
  618000   0.98282234   -2.4056416   -2.4056416   -1.2529244  0.056766947   -2.4056416    1.1527172   468920 
  619000   0.98141385   -2.4041965   -2.4041965   -1.2531019  0.065150171   -2.4041965    1.1510947   468908 
  620000   0.98164173   -2.4037682   -2.4037682   -1.2523768  0.061892362   -2.4037682    1.1513914   468896 
  621000   0.98212232   -2.4029318   -2.4029318   -1.2509497  0.063056312   -2.4029318    1.1519821   468885 
  622000   0.98255347   -2.4036605   -2.4036605   -1.2511432  0.063602644   -2.4036605    1.1525173   468873 
  623000   0.98350896   -2.4051838   -2.4051838   -1.2515161   0.06228868   -2.4051838    1.1536676   468861 
  624000   0.98266395   -2.4041579   -2.4041579   -1.2514519  0.066204609   -2.4041579    1.1527059   468849 
  625000    0.9811819   -2.4035816   -2.4035816   -1.2525871  0.063196279   -2.4035816    1.1509944   468838 
  626000   0.98116801   -2.4029711   -2.4029711   -1.2519635  0.059219007   -2.4029711    1.1510076   468826 
  627000    0.9814742   -2.4039467   -2.4039467   -1.2525504  0.064695953   -2.4039467    1.1513963   468814 
  628000   0.98206031   -2.4045828   -2.4045828   -1.2524694  0.060791694   -2.4045828    1.1521133   468802 
  629000   0.98194479   -2.4041443   -2.4041443    -1.252137   0.06082588   -2.4041443    1.1520073   468790 
  630000   0.98432271   -2.4063266   -2.4063266   -1.2515024  0.061592047   -2.4063266    1.1548242   468779 
  631000   0.98209931   -2.4035416   -2.4035416   -1.2512964  0.062307738   -2.4035416    1.1522451   468767 
  632000   0.98268944   -2.4030416   -2.4030416   -1.2500746  0.068060395   -2.4030416     1.152967   468755 
  633000   0.98190239   -2.4029597   -2.4029597   -1.2508866   0.06345423   -2.4029597    1.1520731   468743 
  634000   0.98174596   -2.4017735   -2.4017735   -1.2498569  0.063041968   -2.4017735    1.1519166   468732 
  635000   0.98421205   -2.4043142   -2.4043142   -1.2494745  0.057343436   -2.4043142    1.1548397   468720 
  636000   0.98397546   -2.4039132   -2.4039132   -1.2493216  0.070063726   -2.4039132    1.1545916   468708 
  637000   0.98385993   -2.4042228   -2.4042228   -1.2497372  0.067126382   -2.4042228    1.1544856   468696 
  638000   0.98300935   -2.4046201   -2.4046201   -1.2511055  0.058533222   -2.4046201    1.1535146   468685 
  639000   0.98188402   -2.4039908   -2.4039908   -1.2517672  0.067316376   -2.4039908    1.1522236   468673 
  640000   0.98135815   -2.4036174   -2.4036174   -1.2519814  0.056358031   -2.4036174     1.151636   468661 
  641000   0.98165034   -2.4040133   -2.4040133   -1.2520049  0.055540091   -2.4040133    1.1520083   468649 
  642000    0.9808736     -2.40226     -2.40226   -1.2511361  0.062186995     -2.40226    1.1511238   468638 
  643000   0.98242371   -2.4050641   -2.4050641   -1.2520916    0.0628976   -2.4050641    1.1529725   468626 
  644000   0.98217954   -2.4050046   -2.4050046   -1.2522891   0.06930368   -2.4050046    1.1527155   468614 
  645000   0.98065734   -2.4030787   -2.4030787   -1.2521202  0.063410651   -2.4030787    1.1509585   468602 
  646000   0.98142155   -2.4054992   -2.4054992   -1.2536143  0.063992134   -2.4054992    1.1518849   468590 
  647000   0.98255778   -2.4062365   -2.4062365   -1.2529909  0.059529163   -2.4062365    1.1532455   468579 
  648000   0.98132605   -2.4050563   -2.4050563   -1.2532269  0.056495585   -2.4050563    1.1518293   468567 
  649000   0.98175314   -2.4047254   -2.4047254   -1.2523653   0.06848848   -2.4047254    1.1523601   468555 
  650000   0.98132312   -2.4039421   -2.4039421   -1.2520572  0.063714762   -2.4039421    1.1518849   468543 
  651000   0.98185367   -2.4046281   -2.4046281   -1.2520934  0.062800786   -2.4046281    1.1525347   468532 
  652000     0.984113   -2.4066681   -2.4066681   -1.2514518  0.061353796   -2.4066681    1.1552164   468520 
  653000   0.98308744   -2.4057824   -2.4057824   -1.2517403  0.070067254   -2.4057824    1.1540421   468508 
  654000   0.98227077    -2.404654    -2.404654   -1.2515411  0.062710861    -2.404654    1.1531129   468496 
  655000   0.98132236   -2.4039048   -2.4039048   -1.2518782  0.064530221   -2.4039048    1.1520266   468485 
[...]
28345000   0.09218994   -0.1271025   -0.1271025   0.22815659  0.029336095   -0.1271025   0.35525909   142720 
28346000  0.092609712  -0.12810092  -0.12810092   0.22880579  0.032093874  -0.12810092   0.35690671   142708 
28347000  0.092870021   -0.1293677   -0.1293677   0.22857231  0.028501614   -0.1293677   0.35794001   142696 
28348000  0.092700873   -0.1284235   -0.1284235   0.22889212  0.029192388   -0.1284235   0.35731562   142685 
28349000  0.092680928  -0.12788351  -0.12788351   0.22938528  0.027854251  -0.12788351   0.35726879   142673 
28350000    0.0932656    -0.129513    -0.129513   0.23003985  0.028236762    -0.129513   0.35955284   142661 
28351000  0.092472645  -0.12766944  -0.12766944   0.22885643  0.031285495  -0.12766944   0.35652587   142649 
28352000  0.092358273  -0.12757435  -0.12757435   0.22853802  0.029731747  -0.12757435   0.35611237   142638 
28353000  0.092525852  -0.12744601  -0.12744601   0.22934253   0.02800561  -0.12744601   0.35678854   142626 
28354000  0.092360679  -0.12702194  -0.12702194   0.22915965  0.029610132  -0.12702194   0.35618158   142614 
28355000  0.092477931   -0.1281333   -0.1281333   0.22853047  0.029991074   -0.1281333   0.35666377   142602 
28356000  0.092063728  -0.12782488  -0.12782488    0.2272713  0.029668095  -0.12782488   0.35509617   142590 
28357000  0.092137811  -0.12797922  -0.12797922   0.22743012   0.03195165  -0.12797922   0.35540933   142579 
28358000  0.092427996  -0.12916412  -0.12916412   0.22739457  0.028716736  -0.12916412   0.35655869   142567 
28359000  0.092272363  -0.12943915  -0.12943915   0.22654912  0.030431099  -0.12943915   0.35598827   142555 
28360000  0.092064595  -0.12820203  -0.12820203   0.22701457  0.028312309  -0.12820203    0.3552166   142543 
28361000   0.09210016  -0.12761324  -0.12761324   0.22776801  0.030149407  -0.12761324   0.35538125   142532 
28362000  0.092269928  -0.12878162  -0.12878162   0.22728468  0.028468708  -0.12878162    0.3560663   142520 
28363000  0.092083976  -0.12721861  -0.12721861   0.22816003  0.029682107  -0.12721861   0.35537864   142508 
28364000  0.091903644  -0.12802133  -0.12802133   0.22669122  0.030181269  -0.12802133   0.35471255   142496 
28365000  0.091840627   -0.1285578   -0.1285578    0.2259389  0.029084247   -0.1285578    0.3544967   142485 
28366000  0.091982158  -0.12911045  -0.12911045   0.22596245  0.028050044  -0.12911045    0.3550729   142473 
28367000  0.092080102  -0.12943148  -0.12943148   0.22604945     0.028281  -0.12943148   0.35548093   142461 
28368000  0.091791159  -0.12944701  -0.12944701   0.22494829  0.027937701  -0.12944701    0.3543953   142449 
28369000   0.09172484  -0.12922972  -0.12922972   0.22493687  0.028812233  -0.12922972    0.3541666   142438 
28370000  0.091591793  -0.12859598  -0.12859598    0.2250867  0.028218369  -0.12859598   0.35368268   142426 
28371000  0.091615656  -0.12916395  -0.12916395   0.22464068  0.028753375  -0.12916395   0.35380463   142414 
28372000  0.091703434   -0.1280917   -0.1280917   0.22608175  0.029853421   -0.1280917   0.35417346   142402 
28373000   0.09161729  -0.12792655  -0.12792655   0.22594403  0.029017875  -0.12792655   0.35387058   142390 
28374000  0.091420021  -0.12801121  -0.12801121    0.2251247  0.030396163  -0.12801121   0.35313591   142379 
28375000  0.091680823  -0.12905411  -0.12905411   0.22511907  0.027778107  -0.12905411   0.35417318   142367 
28376000  0.091612512  -0.12825922  -0.12825922    0.2256799  0.030002493  -0.12825922   0.35393912   142355 
28377000  0.091465847  -0.12897451  -0.12897451   0.22442777  0.029117371  -0.12897451   0.35340228   142343 
28378000  0.091197538  -0.12696498  -0.12696498   0.22542785  0.027411939  -0.12696498   0.35239283   142332 
28379000  0.091572063  -0.12819937  -0.12819937   0.22567048  0.029808195  -0.12819937   0.35386985   142320 
28380000  0.091178858  -0.12674313  -0.12674313   0.22563694  0.027440126  -0.12674313   0.35238007   142308 
28381000  0.091010037  -0.12703346  -0.12703346   0.22472383  0.024650582  -0.12703346   0.35175728   142296 
28382000  0.091541148  -0.12783807  -0.12783807   0.22599933  0.029282693  -0.12783807    0.3538374   142285 
28383000   0.09125697  -0.12551917  -0.12551917   0.22724954  0.026712887  -0.12551917   0.35276871   142273 
28384000  0.091499177  -0.12614193  -0.12614193    0.2275929  0.027298097  -0.12614193   0.35373484   142261 
28385000  0.091517167  -0.12634574  -0.12634574   0.22748849  0.029745717  -0.12634574   0.35383423   142249 
28386000   0.09089238  -0.12420288  -0.12420288    0.2272429  0.028349499  -0.12420288   0.35144579   142238 
28387000  0.091005103  -0.12445645  -0.12445645   0.22745488  0.028805009  -0.12445645   0.35191133   142226 
28388000  0.091451159  -0.12685265  -0.12685265   0.22681339  0.028067366  -0.12685265   0.35366604   142214 
28389000  0.090764064  -0.12512071  -0.12512071   0.22591777  0.027888599  -0.12512071   0.35103849   142202 
28390000  0.091411214   -0.1270539   -0.1270539   0.22651733  0.028945093   -0.1270539   0.35357123   142190 
28391000  0.090929957  -0.12535648  -0.12535648    0.2263805  0.029145021  -0.12535648   0.35173698   142179 
28392000  0.090881247  -0.12413913  -0.12413913    0.2274391  0.030722046  -0.12413913   0.35157823   142167 
28393000  0.090967863  -0.12436836  -0.12436836   0.22757466  0.030015443  -0.12436836   0.35194302   142155 
28394000  0.091174881  -0.12583247  -0.12583247   0.22694125  0.028460157  -0.12583247   0.35277373   142143 
28395000  0.091079085  -0.12545443  -0.12545443   0.22697592  0.030462944  -0.12545443   0.35243034   142132 
28396000  0.090984732  -0.12559283  -0.12559283   0.22650215  0.029529841  -0.12559283   0.35209497   142120 
28397000  0.090869494   -0.1241477   -0.1241477   0.22753101  0.030077254   -0.1241477   0.35167871   142108 
28398000  0.090817668  -0.12429188  -0.12429188   0.22721595  0.028782858  -0.12429188   0.35150782   142096 
28399000  0.090080332  -0.12185948  -0.12185948   0.22682149  0.026916241  -0.12185948   0.34868097   142085 
28400000  0.090464304  -0.12289328  -0.12289328   0.22730354  0.028378056  -0.12289328   0.35019682   142073 
28401000   0.09096555  -0.12410803  -0.12410803   0.22805891  0.029255631  -0.12410803   0.35216694   142061 
28402000  0.090447273  -0.12211675  -0.12211675    0.2280733  0.031456687  -0.12211675   0.35019005   142049 
28403000  0.090558976  -0.12376465  -0.12376465   0.22688504  0.027201254  -0.12376465   0.35064969   142038 
28404000  0.090940418  -0.12515435  -0.12515435   0.22700206  0.028936126  -0.12515435   0.35215641   142026 
28405000   0.09086987  -0.12485897  -0.12485897   0.22705397  0.029734466  -0.12485897   0.35191295   142014 
28406000  0.090412075  -0.12464945  -0.12464945   0.22552018  0.026764627  -0.12464945   0.35016963   142002 
28407000  0.090658589  -0.12480858  -0.12480858   0.22634548  0.026841017  -0.12480858   0.35115406   141990 
28408000  0.090173777  -0.12322792  -0.12322792   0.22607535  0.029093944  -0.12322792   0.34930327   141979 
28409000  0.090670021  -0.12321262  -0.12321262   0.22804262  0.028238548  -0.12321262   0.35125524   141967 
28410000  0.090359523  -0.12397608  -0.12397608   0.22610588  0.031114172  -0.12397608   0.35008196   141955 
28411000  0.090363497  -0.12448753  -0.12448753   0.22563943  0.027336194  -0.12448753   0.35012696   141943 
28412000  0.090250422  -0.12340107  -0.12340107   0.22631486  0.028475053  -0.12340107   0.34971593   141932 
28413000  0.090361741  -0.12335367  -0.12335367   0.22682322  0.027425179  -0.12335367    0.3501769   141920 
28414000  0.090210669  -0.12309289  -0.12309289   0.22652812  0.031120084  -0.12309289   0.34962101   141908 
28415000  0.090410001  -0.12409157  -0.12409157   0.22633161  0.027815853  -0.12409157   0.35042318   141896 
28416000  0.090179054  -0.12342251  -0.12342251   0.22613263  0.024955598  -0.12342251   0.34955514   141885 
28417000   0.09014107  -0.12266253  -0.12266253   0.22677493  0.030468926  -0.12266253   0.34943746   141873 
28418000  0.090382342  -0.12344837  -0.12344837   0.22695403  0.028785228  -0.12344837    0.3504024   141861 
28419000  0.090110517  -0.12245663  -0.12245663   0.22692149   0.02896062  -0.12245663   0.34937812   141849 
28420000  0.090374228  -0.12366758  -0.12366758   0.22676018  0.030002789  -0.12366758   0.35042776   141838 
28421000  0.090079685  -0.12326235  -0.12326235   0.22605287  0.027410838  -0.12326235   0.34931522   141826 
28422000  0.089812886  -0.12317709  -0.12317709     0.225133  0.027574177  -0.12317709   0.34831008   141814 
28423000  0.089809867  -0.12373187  -0.12373187   0.22459598  0.029083578  -0.12373187   0.34832785   141802 
28424000  0.089938505  -0.12273302  -0.12273302   0.22612327  0.027731776  -0.12273302   0.34885629   141790 
28425000  0.089835739  -0.12288645  -0.12288645   0.22559826  0.027935083  -0.12288645   0.34848472   141779 
28426000  0.089967715  -0.12350524  -0.12350524   0.22552097  0.027540502  -0.12350524   0.34902621   141767 
28427000  0.090153047  -0.12432551  -0.12432551    0.2254493  0.025883639  -0.12432551   0.34977481   141755 
28428000  0.089939437  -0.12293895  -0.12293895   0.22603664  0.029154548  -0.12293895   0.34897559   141743 
28429000   0.08999588  -0.12299052  -0.12299052   0.22623117  0.028695745  -0.12299052   0.34922169   141732 
28430000   0.09005107  -0.12258393  -0.12258393   0.22688151  0.029472404  -0.12258393   0.34946544   141720 
28431000  0.090076132  -0.12216512  -0.12216512   0.22742718  0.030473755  -0.12216512    0.3495923   141708 
28432000  0.089872958  -0.12169031  -0.12169031     0.227143  0.028290124  -0.12169031   0.34883331   141696 
28433000  0.089623577  -0.12168983  -0.12168983   0.22620254  0.028835532  -0.12168983   0.34789237   141685 
28434000  0.090241759  -0.12406366  -0.12406366   0.22625798  0.029731182  -0.12406366   0.35032164   141673 
28435000  0.089791513  -0.12253583  -0.12253583   0.22606747  0.031763299  -0.12253583    0.3486033   141661 
28436000  0.090240018  -0.12364063  -0.12364063   0.22673361  0.027601522  -0.12364063   0.35037423   141649 
28437000  0.089949392  -0.12224429  -0.12224429   0.22702866  0.030615035  -0.12224429   0.34927295   141638 
28438000  0.090217395   -0.1241418   -0.1241418   0.22620149  0.030399614   -0.1241418   0.35034328   141626 
28439000   0.08956946  -0.12247323  -0.12247323   0.22538339  0.027600451  -0.12247323   0.34785661   141614 
28440000   0.09001762  -0.12325367  -0.12325367   0.22637307  0.027139467  -0.12325367   0.34962674   141602 
28441000  0.090032101  -0.12323108  -0.12323108   0.22648154    0.0288217  -0.12323108   0.34971262   141590 
28442000  0.089528672  -0.12243254  -0.12243254   0.22535163  0.028994667  -0.12243254   0.34778417   141579 
28443000   0.08952019  -0.12196938  -0.12196938   0.22581132  0.028477512  -0.12196938   0.34778069   141567 
28444000  0.089746815  -0.12324482  -0.12324482   0.22544585  0.028288493  -0.12324482   0.34869068   141555 
28445000  0.088955969  -0.12127419  -0.12127419   0.22437313  0.028069507  -0.12127419   0.34564733   141543 
28446000  0.089224794  -0.12215791  -0.12215791   0.22456091  0.029582366  -0.12215791   0.34671882   141532 
28447000  0.089490402  -0.12289251  -0.12289251   0.22488793  0.029228632  -0.12289251   0.34778043   141520 
28448000  0.089673212  -0.12278881  -0.12278881   0.22573162  0.027359652  -0.12278881   0.34852043   141508 
28449000  0.089289421  -0.12262252  -0.12262252   0.22443571  0.026659237  -0.12262252   0.34705823   141496 
28450000  0.089330625  -0.12200873  -0.12200873   0.22523664   0.02816442  -0.12200873   0.34724538   141485 
28451000  0.089005318  -0.12157963  -0.12157963   0.22443057  0.026118501  -0.12157963    0.3460102   141473 
28452000  0.088895044  -0.12170891  -0.12170891    0.2239019  0.028287388  -0.12170891   0.34561082   141461 
28453000  0.088879569  -0.12193145  -0.12193145   0.22364852  0.029606142  -0.12193145   0.34557997   141449 
28454000  0.088482682  -0.12099033  -0.12099033   0.22307323  0.025573594  -0.12099033   0.34406356   141438 
28455000  0.088563481  -0.12142226  -0.12142226    0.2229847  0.027765272  -0.12142226   0.34440696   141426 
28456000  0.088859908  -0.12144607  -0.12144607   0.22414297  0.027067444  -0.12144607   0.34558903   141414 
28457000  0.088881119  -0.12077245  -0.12077245   0.22492842  0.028944756  -0.12077245   0.34570086   141402 
28458000    0.0889107  -0.12035475  -0.12035475   0.22549052  0.028773231  -0.12035475   0.34584527   141390 
28459000  0.089173386  -0.12049168  -0.12049168   0.22640238  0.029372004  -0.12049168   0.34689405   141379 
28460000  0.088849187  -0.11954735  -0.11954735   0.22611487  0.028073556  -0.11954735   0.34566222   141367 
28461000  0.088629199  -0.11986016  -0.11986016   0.22497548  0.027325978  -0.11986016   0.34483565   141355 
28462000  0.088463174  -0.11969385  -0.11969385   0.22452505   0.02639462  -0.11969385    0.3442189   141343 
28463000  0.088621128  -0.11984018  -0.11984018   0.22502017   0.02766504  -0.11984018   0.34486036   141332 
28464000  0.088646379  -0.11827175  -0.11827175   0.22671616   0.02774416  -0.11827175   0.34498791   141320 
28465000   0.08859225  -0.11855766  -0.11855766   0.22624887  0.029832974  -0.11855766   0.34480653   141308 
28466000  0.088643062  -0.11829931  -0.11829931   0.22673429  0.027739911  -0.11829931    0.3450336   141296 
28467000  0.089055636  -0.11942694  -0.11942694   0.22723955  0.028115109  -0.11942694   0.34666648   141285 
28468000  0.088833641  -0.11930729  -0.11930729   0.22652441  0.027622006  -0.11930729    0.3458317   141273 
28469000    0.0890186  -0.11928098  -0.11928098   0.22730021  0.029487498  -0.11928098   0.34658119   141261 
28470000  0.088626824  -0.11807086  -0.11807086   0.22701432  0.027814414  -0.11807086   0.34508518   141249 
28471000  0.088417583  -0.11871613  -0.11871613   0.22558114  0.028052441  -0.11871613   0.34429727   141238 
28472000  0.088637262  -0.11834853  -0.11834853    0.2268335  0.030245017  -0.11834853   0.34518203   141226 
28473000  0.088627221  -0.11877056  -0.11877056    0.2264017  0.031116683  -0.11877056   0.34517225   141214 
28474000  0.088394485  -0.11850898  -0.11850898    0.2257861  0.030323589  -0.11850898   0.34429509   141202 
28475000  0.088820455  -0.11916346  -0.11916346   0.22682018  0.027730161  -0.11916346   0.34598363   141190 
28476000  0.088781625  -0.11979022  -0.11979022   0.22606911  0.025894349  -0.11979022   0.34585933   141179 
28477000  0.088682048  -0.11882352  -0.11882352   0.22667726  0.029180136  -0.11882352   0.34550078   141167 
28478000   0.08835709  -0.11696732  -0.11696732    0.2272967  0.029441967  -0.11696732   0.34426402   141155 
28479000  0.088451919  -0.11707426  -0.11707426   0.22758855  0.030377387  -0.11707426    0.3446628   141143 
28480000  0.088406944  -0.11628729  -0.11628729   0.22822711  0.026570975  -0.11628729    0.3445144   141132 
28481000  0.088609941  -0.11763565  -0.11763565   0.22769918  0.031097171  -0.11763565   0.34533483   141120 
28482000  0.088681962    -0.118161    -0.118161    0.2274839  0.028850291    -0.118161    0.3456449   141108 
28483000  0.088444943  -0.11819017  -0.11819017   0.22656026  0.028941293  -0.11819017   0.34475042   141096 
28484000  0.088208608  -0.11809958  -0.11809958   0.22575644  0.027603363  -0.11809958   0.34385602   141085 
28485000  0.088034526  -0.11745484  -0.11745484   0.22575175  0.030352123  -0.11745484    0.3432066   141073 
28486000  0.088332151  -0.11896776  -0.11896776   0.22542844   0.02833955  -0.11896776    0.3443962   141061 
28487000  0.088514528  -0.11988794  -0.11988794   0.22524869  0.029619539  -0.11988794   0.34513662   141049 
28488000  0.088115684  -0.11912373  -0.11912373   0.22448451  0.029358244  -0.11912373   0.34360824   141038 
28489000  0.088126824  -0.11858887  -0.11858887   0.22509206  0.028099033  -0.11858887   0.34368093   141026 
28490000  0.087887235  -0.11831456  -0.11831456   0.22446118   0.02885928  -0.11831456   0.34277574   141014 
28491000  0.088315197  -0.11930963  -0.11930963   0.22516455   0.02994213  -0.11930963   0.34447418   141002 
28492000    0.0878515  -0.11814057  -0.11814057   0.22455412  0.029152247  -0.11814057   0.34269469   140990 
28493000  0.087880295    -0.118447    -0.118447   0.22438676  0.032468523    -0.118447   0.34283376   140979 
28494000  0.087797748  -0.11701001  -0.11701001   0.22553088  0.028253372  -0.11701001   0.34254089   140967 
28495000  0.087927877  -0.11775669  -0.11775669    0.2253211  0.028633424  -0.11775669   0.34307779   140955 
28496000  0.087510333  -0.11658432  -0.11658432   0.22489336  0.028784781  -0.11658432   0.34147769   140943 
28497000  0.088086694  -0.11814629  -0.11814629   0.22560727   0.02970613  -0.11814629   0.34375356   140932 
28498000  0.088055182  -0.11808256  -0.11808256   0.22557728  0.027188687  -0.11808256   0.34365984   140920 
28499000   0.08776647  -0.11778503  -0.11778503    0.2247772  0.029484678  -0.11778503   0.34256224   140908 
28500000  0.087928327   -0.1178348   -0.1178348   0.22538841  0.027130532   -0.1178348   0.34322321   140896 
28501000  0.087759612  -0.11708227  -0.11708227   0.22550911  0.029386454  -0.11708227   0.34259139   140885 
28502000  0.087764906  -0.11743539  -0.11743539   0.22520584  0.029207095  -0.11743539   0.34264124   140873 
28503000  0.087833432  -0.11760148  -0.11760148    0.2253365  0.027480852  -0.11760148   0.34293798   140861 
28504000  0.087834584  -0.11707967  -0.11707967   0.22589202  0.027714478  -0.11707967    0.3429717   140849 
28505000  0.087707795  -0.11778693  -0.11778693   0.22471644  0.026327989  -0.11778693   0.34250337   140838 
28506000  0.087543824   -0.1164882   -0.1164882   0.22540398  0.029349438   -0.1164882   0.34189218   140826 
28507000  0.087474319  -0.11578356  -0.11578356   0.22586629   0.02820062  -0.11578356   0.34164985   140814 
28508000  0.087743204  -0.11615126  -0.11615126   0.22657799  0.027629095  -0.11615126   0.34272925   140802 
28509000  0.087446993  -0.11552139  -0.11552139   0.22607996   0.02846544  -0.11552139   0.34160135   140790 
28510000  0.087740341  -0.11621995  -0.11621995    0.2265541  0.026164337  -0.11621995   0.34277406   140779 
28511000  0.087867372  -0.11716696  -0.11716696   0.22613262  0.027326373  -0.11716696   0.34329959   140767 
28512000  0.087487314  -0.11560288  -0.11560288   0.22624095  0.028641413  -0.11560288   0.34184384   140755 
28513000  0.087443375  -0.11514357  -0.11514357   0.22655772  0.025971188  -0.11514357   0.34170128   140743 
28514000  0.087627972  -0.11650488  -0.11650488   0.22594452  0.029088878  -0.11650488    0.3424494   140732 
28515000  0.087553456  -0.11494487  -0.11494487   0.22724249  0.027012751  -0.11494487   0.34218736   140720 
28516000  0.087208862  -0.11471386  -0.11471386   0.22615579  0.026677145  -0.11471386   0.34086965   140708 
28517000  0.087579791  -0.11616795  -0.11616795   0.22618073   0.02762732  -0.11616795   0.34234868   140696 
28518000  0.087585526  -0.11614279  -0.11614279   0.22625508      0.02849  -0.11614279   0.34239787   140685 
28519000  0.087199738  -0.11460608  -0.11460608   0.22631271  0.028848484  -0.11460608   0.34091879   140673 
28520000  0.087591487  -0.11579173  -0.11579173   0.22668787  0.027868097  -0.11579173   0.34247959   140661 
28521000  0.087532824   -0.1147289   -0.1147289   0.22755052  0.028967668   -0.1147289   0.34227943   140649 
28522000  0.087055552  -0.11461587  -0.11461587   0.22582391  0.027561501  -0.11461587   0.34043977   140638 
28523000  0.087637287  -0.11483162  -0.11483162   0.22791234  0.028139039  -0.11483162   0.34274396   140626 
28524000   0.08742001  -0.11478506  -0.11478506   0.22713831  0.028734307  -0.11478506   0.34192337   140614 
28525000  0.086828804  -0.11381115  -0.11381115   0.22582884    0.0269051  -0.11381115   0.33963999   140602 
28526000   0.08679828  -0.1