LAMMPS (24 Dec 2020)
OMP_NUM_THREADS environment is not set. Defaulting to 1 thread. (src/comm.cpp:94)
  using 1 OpenMP thread(s) per MPI task
# Simple rigid body system
# needed variables:

#variable	startTemp equal 0.5
#variable 	temp 	  equal 0.8

units		lj
atom_style	full
dimension 	3
boundary	p p f
pair_style	lj/smooth/linear 1.5

variable 	sigma		equal 1.0
variable 	epsilon 	equal 1.0

region		box block 0 80 0 80 0 160
create_box 	3 box
Created orthogonal box = (0.0000000 0.0000000 0.0000000) to (80.000000 80.000000 160.00000)
  6 by 4 by 8 MPI processor grid

lattice 	sc 0.66
Lattice spacing in x,y,z = 1.1485556 1.1485556 1.1485556
region		fluid block EDGE EDGE EDGE EDGE 2 100 units box
create_atoms 	1 region fluid
Created 421400 atoms
  create_atoms CPU = 0.145 seconds

#lattice 	sc 0.045
#region		gas block EDGE EDGE EDGE EDGE 101 158 units box
#create_atoms    1 region gas

group		solvent type 1
421400 atoms in group solvent

mass		1 1.0
mass		2 1.0
mass		3 1.0



neighbor 	0.4 bin

pair_coeff	1 1 1.0 1.0
pair_coeff	2 2 0.0 0.0
pair_coeff	3 3 0.0 0.0
pair_coeff	2 3 0.0 0.0
pair_coeff	1 2*3 0.0 0.0

pair_modify 	shift yes

#delete_atoms	overlap 0.5 solvent solvent

velocity 	solvent create ${startTemp} 563435 loop geom
velocity 	solvent create 1.0 563435 loop geom

balance 	1.05 shift z 10 1.05
Balancing ...
Neighbor list info ...
  update every 1 steps, delay 10 steps, check yes
  max neighbors/atom: 2000, page size: 100000
  master list distance cutoff = 1.9
  ghost atom cutoff = 1.9
  binsize = 0.95, bins = 85 85 169
  1 neighbor lists, perpetual/occasional/extra = 1 0 0
  (1) pair lj/smooth/linear, perpetual
      attributes: half, newton on
      pair build: half/bin/newton
      stencil: half/bin/3d/newton
      bin: standard
 rebalancing time: 0.032 seconds
  iteration count = 5
  initial/final maximal load/proc = 3888.0000 2376.0000
  initial/final imbalance factor  = 1.7714665 1.0825629
  x cuts: 0.0000000 0.16666667 0.33333333 0.50000000 0.66666667 0.83333333 1.0000000
  y cuts: 0.0000000 0.25000000 0.50000000 0.75000000 1.0000000
  z cuts: 0.0000000 0.089843750 0.16796875 0.24218750 0.32031250 0.39843750 0.48046875 0.55859375 1.0000000


####################### WALLS ###########################


variable       epsilonWall equal 2*${epsilon}
variable       epsilonWall equal 2*1

variable       cutoffTop   equal   0.7147*${sigma}
variable       cutoffTop   equal   0.7147*1

variable       cutoffLow   equal   3*${sigma}
variable       cutoffLow   equal   3*1


fix            topWall all wall/lj93 zhi EDGE                ${epsilonWall} ${sigma} ${cutoffTop} units box
fix            topWall all wall/lj93 zhi EDGE                2 ${sigma} ${cutoffTop} units box
fix            topWall all wall/lj93 zhi EDGE                2 1 ${cutoffTop} units box
fix            topWall all wall/lj93 zhi EDGE                2 1 0.7147 units box

fix            lowWall all wall/lj93 zlo EDGE                ${epsilonWall} ${sigma} ${cutoffLow} units box
fix            lowWall all wall/lj93 zlo EDGE                2 ${sigma} ${cutoffLow} units box
fix            lowWall all wall/lj93 zlo EDGE                2 1 ${cutoffLow} units box
fix            lowWall all wall/lj93 zlo EDGE                2 1 3 units box


###################### COMPUTES ##########################

compute        bin1 solvent chunk/atom bin/1d z upper 1.0


######################	FIXES ############################


fix 		peclet solvent ave/chunk 10 10 1000 bin1 density/number norm 		 none ave one file density.profile

fix 		 temp solvent ave/chunk 10 10 1000 bin1 temp norm 		 none ave one file temp.profile

fix 		2 solvent nve


## Thermostat


region		regthermo block EDGE EDGE EDGE EDGE 0 20 units box

group 		thermo dynamic solvent region regthermo every 1000
dynamic group thermo defined

fix 		3 thermo langevin ${startTemp} ${temp} 10 156453
fix 		3 thermo langevin 1.0 ${temp} 10 156453
fix 		3 thermo langevin 1.0 0.1 10 156453



#### Load balancing


fix 		bal all balance 1000 1.05 shift z 10 1.05


############### Diagnostics and computes ###################
#compute 	com cube	  rigid/local	1 mol x y z
#compute 	quat cube	  rigid/local	1 mol quatw quati quatj quatk

thermo 		1000
thermo_style 	custom step temp epair evdwl etotal press pe ke atoms

dump		1 all custom 100000 dump.lammpstrj id mol type x y z
dump 		2 all image 10000 image.*.png type type
dump 		3 all movie 1000 movie.avi type type

#dump 		com cube local 1000 dump.*.xyz c_com[*]
#dump		quat cube      local 1000 dump.*.quat c_quat[*]


restart 	1000000 restart.dat
timestep 	0.005
timer 		full
New timer settings: style=full  mode=nosync  timeout=off

run		4000000
Per MPI rank memory allocation (min/avg/max) = 9.959 | 9.999 | 10.10 Mbytes
Step Temp E_pair E_vdwl TotEng Press PotEng KinEng Atoms 
       0            1    2.2548251    2.2548251    3.7548216     5.835313    2.2548251    1.4999964   421400 
    1000    2.0344151   0.21416033   0.21416033    3.2657757     3.248067   0.21416033    3.0516154   421400 
    2000     2.068314 -0.021352293 -0.021352293    3.0811113    2.3456941 -0.021352293    3.1024636   421400 
    3000    2.0223636 -0.089798376 -0.089798376    2.9437399    1.9676355 -0.089798376    3.0335383   421400 
    4000    2.0176437  -0.14098633  -0.14098633    2.8854721    1.6885143  -0.14098633    3.0264584   421400 
    5000    2.0131395   -0.1258232   -0.1258232    2.8938789    1.6027065   -0.1258232    3.0197021   421400 
    6000    2.0074245 -0.082632898 -0.082632898    2.9284968    1.6386279 -0.082632898    3.0111297   421400 
    7000    1.9943801 -0.024571798 -0.024571798    2.9669912    1.7650908 -0.024571798     2.991563   421400 
    8000    1.9825309  0.024513007  0.024513007    2.9983022    1.8800937  0.024513007    2.9737892   421400 
    9000    1.9868132  0.046067169  0.046067169    3.0262798     1.968555  0.046067169    2.9802127   421400 
   10000    2.0001475  0.048081833  0.048081833     3.048296    1.9778285  0.048081833    3.0002141   421400 
   11000    2.0200019  0.037412258  0.037412258     3.067408    1.9607348  0.037412258    3.0299957   421400 
   12000    2.0359496  0.027400396  0.027400396    3.0813175    1.9576079  0.027400396    3.0539171   421400 
   13000    2.0498858    0.0121705    0.0121705    3.0869919    1.9164005    0.0121705    3.0748214   421400 
   14000    2.0299365 -0.015103077 -0.015103077    3.0297944    1.8023752 -0.015103077    3.0448975   421400 
   15000    1.9452707 -0.016053411 -0.016053411    2.9018458    1.7731675 -0.016053411    2.9178992   421400 
   16000     1.842423 -0.011494457 -0.011494457    2.7521335    1.7967182 -0.011494457     2.763628   421400 
   17000    1.7657871 -0.014000011 -0.014000011    2.6346744    1.8029287 -0.014000011    2.6486744   421400 
   18000    1.7243327 -0.024409112 -0.024409112    2.5620838    1.7771506 -0.024409112     2.586493   421400 
   19000     1.700768 -0.029783872 -0.029783872    2.5213621    1.7507223 -0.029783872     2.551146   421400 
   20000    1.6907014 -0.036071033 -0.036071033    2.4999751    1.7227281 -0.036071033    2.5360461   421400 
   21000    1.6899743 -0.042714451 -0.042714451    2.4922409    1.6947693 -0.042714451    2.5349554   421400 
   22000    1.6943283  -0.04780913  -0.04780913    2.4936772    1.6603344  -0.04780913    2.5414864   421400 
   23000    1.7047637 -0.055701792 -0.055701792    2.5014377    1.6109838 -0.055701792    2.5571395   421400 
   24000    1.7114007 -0.057610744 -0.057610744    2.5094843    1.5804664 -0.057610744     2.567095   421400 
   25000    1.7143851 -0.050801395 -0.050801395    2.5207701    1.5810325 -0.050801395    2.5715715   421400 
   26000    1.7183926 -0.044790465 -0.044790465    2.5327923      1.58759 -0.044790465    2.5775828   421400 
   27000    1.7218144 -0.037671549 -0.037671549    2.5450439    1.5974708 -0.037671549    2.5827155   421400 
   28000    1.7282786 -0.034997753 -0.034997753    2.5574139     1.602162 -0.034997753    2.5924117   421400 
   29000    1.7339347 -0.030956248 -0.030956248    2.5699397     1.614515 -0.030956248    2.6008959   421400 
   30000    1.7419237 -0.029835142 -0.029835142    2.5830442     1.622657 -0.029835142    2.6128793   421400 
   31000    1.7492084 -0.028459718 -0.028459718    2.5953467    1.6373225 -0.028459718    2.6238064   421400 
   32000    1.7535427 -0.029352267 -0.029352267    2.6009555    1.6417689 -0.029352267    2.6303078   421400 
   33000    1.7420773 -0.035971059 -0.035971059    2.5771388     1.629344 -0.035971059    2.6131098   421400 
   34000    1.7162795 -0.038987719 -0.038987719    2.5354255    1.6315025 -0.038987719    2.5744132   421400 
   35000    1.6919027 -0.040088061 -0.040088061      2.49776    1.6324714 -0.040088061    2.5378481   421400 
   36000     1.677996 -0.045626795 -0.045626795    2.4713612    1.6218812 -0.045626795     2.516988   421400 
   37000    1.6647746  -0.04539516  -0.04539516    2.4517609    1.6211768  -0.04539516     2.497156   421400 
   38000     1.657011 -0.045047998 -0.045047998    2.4404627    1.6202773 -0.045047998    2.4855107   421400 
   39000    1.6552818 -0.049395676 -0.049395676    2.4335211    1.6063041 -0.049395676    2.4829168   421400 
   40000    1.6554177 -0.050653136 -0.050653136    2.4324676    1.5948692 -0.050653136    2.4831207   421400 
   41000     1.655954 -0.051141368 -0.051141368    2.4327838    1.5832731 -0.051141368    2.4839252   421400 
   42000    1.6603792 -0.055089516 -0.055089516    2.4354734     1.566202 -0.055089516    2.4905629   421400 
   43000    1.6608324 -0.052607698 -0.052607698     2.438635    1.5616167 -0.052607698    2.4912427   421400 
   44000    1.6639047 -0.050677507 -0.050677507    2.4451736    1.5597366 -0.050677507    2.4958511   421400 
   45000    1.6661472 -0.048545173 -0.048545173    2.4506698    1.5563888 -0.048545173    2.4992149   421400 
   46000    1.6684514 -0.047232858 -0.047232858    2.4554382    1.5569888 -0.047232858    2.5026711   421400 
   47000     1.672707 -0.047049718 -0.047049718    2.4620049     1.555822 -0.047049718    2.5090546   421400 
   48000    1.6752345 -0.043509785 -0.043509785    2.4693359    1.5668178 -0.043509785    2.5128457   421400 
   49000    1.6796155 -0.043063913 -0.043063913    2.4763534     1.571693 -0.043063913    2.5194173   421400 
   50000     1.682501 -0.041223159 -0.041223159    2.4825223    1.5836949 -0.041223159    2.5237455   421400 
   51000    1.6814228  -0.04407294  -0.04407294    2.4780552    1.5823568  -0.04407294    2.5221282   421400 
   52000    1.6713278 -0.045898105 -0.045898105    2.4610877    1.5837516 -0.045898105    2.5069858   421400 
   53000    1.6589011 -0.046363188 -0.046363188    2.4419826    1.5858995 -0.046363188    2.4883458   421400 
   54000    1.6513281 -0.049151498 -0.049151498    2.4278348    1.5823591 -0.049151498    2.4769863   421400 
   55000    1.6451502 -0.051834731 -0.051834731    2.4158848    1.5758428 -0.051834731    2.4677195   421400 
   56000    1.6389267 -0.050380382 -0.050380382    2.4080038    1.5783215 -0.050380382    2.4583842   421400 
   57000    1.6351593 -0.050919838 -0.050919838    2.4018133    1.5747571 -0.050919838    2.4527331   421400 
   58000    1.6326455 -0.051022049 -0.051022049    2.3979404    1.5708815 -0.051022049    2.4489625   421400 
   59000    1.6349592 -0.054775487 -0.054775487    2.3976575    1.5557494 -0.054775487     2.452433   421400 
   60000    1.6351578 -0.054850632 -0.054850632    2.3978802    1.5513031 -0.054850632    2.4527309   421400 
   61000    1.6370861  -0.05550097  -0.05550097    2.4001223    1.5453964  -0.05550097    2.4556233   421400 
   62000    1.6380108 -0.055611321 -0.055611321     2.401399    1.5396741 -0.055611321    2.4570103   421400 
   63000    1.6396149 -0.053790495 -0.053790495    2.4056259    1.5395755 -0.053790495    2.4594164   421400 
   64000    1.6397551 -0.049850977 -0.049850977    2.4097758    1.5455994 -0.049850977    2.4596267   421400 
   65000    1.6410085 -0.049397337 -0.049397337    2.4121096    1.5451723 -0.049397337    2.4615069   421400 
   66000    1.6435434 -0.050313667 -0.050313667    2.4149955     1.544797 -0.050313667    2.4653092   421400 
   67000    1.6459796 -0.050408595 -0.050408595    2.4185549    1.5456469 -0.050408595    2.4689635   421400 
   68000    1.6468347 -0.048308858 -0.048308858    2.4219374    1.5535157 -0.048308858    2.4702462   421400 
   69000    1.6469628 -0.049079951 -0.049079951    2.4213584    1.5561223 -0.049079951    2.4704384   421400 
   70000    1.6426357 -0.049794075 -0.049794075    2.4141537    1.5571321 -0.049794075    2.4639478   421400 
   71000    1.6377911 -0.052501914 -0.052501914     2.404179    1.5532361 -0.052501914    2.4566809   421400 
   72000    1.6305264 -0.052391809 -0.052391809    2.3933919    1.5545769 -0.052391809    2.4457837   421400 
   73000    1.6270628 -0.055379504 -0.055379504     2.385209     1.547906 -0.055379504    2.4405885   421400 
   74000    1.6218665 -0.055701638 -0.055701638    2.3770923    1.5475759 -0.055701638    2.4327939   421400 
   75000    1.6205824 -0.057253819 -0.057253819    2.3736139    1.5428901 -0.057253819    2.4308678   421400 
   76000    1.6178757 -0.055514481 -0.055514481    2.3712934    1.5460202 -0.055514481    2.4268079   421400 
   77000    1.6163071 -0.057124398 -0.057124398    2.3673305    1.5386882 -0.057124398    2.4244549   421400 
   78000    1.6153845  -0.05697575  -0.05697575    2.3660952    1.5379086  -0.05697575     2.423071   421400 
   79000     1.617297 -0.059845371 -0.059845371    2.3660944    1.5259521 -0.059845371    2.4259397   421400 
   80000    1.6161623 -0.058525923 -0.058525923    2.3657117    1.5234636 -0.058525923    2.4242377   421400 
   81000    1.6151103 -0.055289754 -0.055289754    2.3673699    1.5293483 -0.055289754    2.4226597   421400 
   82000    1.6168293    -0.056242    -0.056242    2.3689962    1.5263308    -0.056242    2.4252382   421400 
   83000    1.6169171 -0.055525396 -0.055525396    2.3698445    1.5228297 -0.055525396    2.4253699   421400 
   84000    1.6179825 -0.054188477 -0.054188477    2.3727796    1.5294506 -0.054188477    2.4269681   421400 
   85000    1.6188327 -0.054001801 -0.054001801    2.3742415    1.5285383 -0.054001801    2.4282434   421400 
   86000    1.6200777 -0.054216542 -0.054216542    2.3758942    1.5287767 -0.054216542    2.4301107   421400 
   87000    1.6192016 -0.053170471 -0.053170471    2.3756262    1.5337205 -0.053170471    2.4287967   421400 
   88000    1.6186013 -0.054103122 -0.054103122    2.3737931    1.5336344 -0.054103122    2.4278962   421400 
   89000    1.6152251  -0.05431489  -0.05431489    2.3685171    1.5349654  -0.05431489     2.422832   421400 
   90000    1.6130225 -0.056251969 -0.056251969     2.363276      1.53221 -0.056251969     2.419528   421400 
   91000    1.6101171 -0.057761922 -0.057761922    2.3574079    1.5304346 -0.057761922    2.4151699   421400 
   92000    1.6051296 -0.056493113 -0.056493113    2.3511955     1.534086 -0.056493113    2.4076886   421400 
   93000    1.6049848 -0.058653408 -0.058653408    2.3488181    1.5278156 -0.058653408    2.4074715   421400 
   94000    1.6016386 -0.057624289 -0.057624289     2.344828     1.525773 -0.057624289    2.4024523   421400 
   95000    1.6007365 -0.059208037 -0.059208037    2.3418911    1.5222317 -0.059208037    2.4010991   421400 
   96000    1.6001994 -0.059169383 -0.059169383     2.341124    1.5205085 -0.059169383    2.4002934   421400 
   97000    1.6001305 -0.060999439 -0.060999439    2.3391906     1.513739 -0.060999439    2.4001901   421400 
   98000    1.5998028 -0.058926054 -0.058926054    2.3407724    1.5149031 -0.058926054    2.3996985   421400 
   99000    1.5996242 -0.059540132 -0.059540132    2.3398905    1.5134948 -0.059540132    2.3994306   421400 
  100000    1.5993383 -0.059111285 -0.059111285    2.3398905    1.5116465 -0.059111285    2.3990017   421400 
  101000    1.5993488 -0.058737805 -0.058737805    2.3402797    1.5108667 -0.058737805    2.3990175   421400 
  102000    1.6007267 -0.059975977 -0.059975977    2.3411083    1.5085885 -0.059975977    2.4010843   421400 
  103000    1.6003727 -0.060022431 -0.060022431     2.340531    1.5080571 -0.060022431    2.4005534   421400 
  104000    1.6002053 -0.058931085 -0.058931085    2.3413712    1.5101875 -0.058931085    2.4003023   421400 
  105000    1.6014787 -0.059036285 -0.059036285    2.3431761    1.5119219 -0.059036285    2.4022124   421400 
  106000    1.5993633 -0.058492867 -0.058492867    2.3405464    1.5132549 -0.058492867    2.3990393   421400 
  107000    1.5982977 -0.060131048 -0.060131048    2.3373098     1.510765 -0.060131048    2.3974408   421400 
  108000    1.5950845 -0.058576359 -0.058576359    2.3340447    1.5152209 -0.058576359    2.3926211   421400 
  109000    1.5924467 -0.059807245 -0.059807245    2.3288571    1.5133049 -0.059807245    2.3886644   421400 
  110000    1.5898433 -0.059194207 -0.059194207    2.3255651    1.5142821 -0.059194207    2.3847593   421400 
  111000    1.5882954 -0.060196302 -0.060196302    2.3222412    1.5124746 -0.060196302    2.3824375   421400 
  112000    1.5856548 -0.060122334 -0.060122334    2.3183542    1.5134263 -0.060122334    2.3784765   421400 
  113000    1.5844578 -0.061849309 -0.061849309    2.3148318    1.5047954 -0.061849309    2.3766811   421400 
  114000    1.5829889 -0.060828872 -0.060828872    2.3136489    1.5072991 -0.060828872    2.3744777   421400 
  115000    1.5838502 -0.062389108 -0.062389108    2.3133805    1.5029823 -0.062389108    2.3757696   421400 
  116000    1.5827565 -0.061155733 -0.061155733    2.3129734    1.5037405 -0.061155733    2.3741291   421400 
  117000    1.5816023 -0.060859619 -0.060859619    2.3115382    1.5034164 -0.060859619    2.3723978   421400 
  118000    1.5820428 -0.063122082 -0.063122082    2.3099364    1.4969858 -0.063122082    2.3730585   421400 
  119000    1.5810456  -0.06237758  -0.06237758    2.3091852    1.4967468  -0.06237758    2.3715628   421400 
  120000    1.5810413 -0.062231385 -0.062231385    2.3093249    1.4960657 -0.062231385    2.3715563   421400 
  121000     1.581896 -0.063197672 -0.063197672    2.3096408     1.494579 -0.063197672    2.3728384   421400 
  122000    1.5805366 -0.061639794 -0.061639794    2.3091595    1.4966583 -0.061639794    2.3707993   421400 
  123000    1.5792872 -0.060236772 -0.060236772    2.3086884    1.4995444 -0.060236772    2.3689252   421400 
  124000    1.5809739 -0.063847172 -0.063847172    2.3076081    1.4918445 -0.063847172    2.3714553   421400 
  125000    1.5789035 -0.061169321 -0.061169321    2.3071803    1.4987656 -0.061169321    2.3683496   421400 
  126000    1.5776506 -0.061432425 -0.061432425    2.3050378    1.4971155 -0.061432425    2.3664703   421400 
  127000    1.5753349   -0.0602964   -0.0602964    2.3027003    1.5020926   -0.0602964    2.3629967   421400 
  128000     1.574387 -0.062064151 -0.062064151    2.2995108    1.4982171 -0.062064151     2.361575   421400 
  129000      1.57402 -0.062609477 -0.062609477    2.2984149    1.4958999 -0.062609477    2.3610243   421400 
  130000     1.572426 -0.063200251 -0.063200251    2.2954331    1.4944595 -0.063200251    2.3586334   421400 
  131000    1.5702815 -0.063927233 -0.063927233    2.2914894    1.4917388 -0.063927233    2.3554167   421400 
  132000    1.5686585 -0.063002496 -0.063002496    2.2899797    1.4930904 -0.063002496    2.3529822   421400 
  133000    1.5685578  -0.06477401  -0.06477401    2.2880571     1.487325  -0.06477401    2.3528311   421400 
  134000    1.5667052 -0.063595676 -0.063595676    2.2864565    1.4890601 -0.063595676    2.3500522   421400 
  135000    1.5680049  -0.06598926  -0.06598926    2.2860125    1.4851932  -0.06598926    2.3520017   421400 
  136000    1.5651259 -0.062747763 -0.062747763    2.2849356     1.491583 -0.062747763    2.3476833   421400 
  137000    1.5656059 -0.063710838 -0.063710838    2.2846924    1.4890621 -0.063710838    2.3484033   421400 
  138000    1.5657723 -0.064938363 -0.064938363    2.2837145    1.4808911 -0.064938363    2.3486528   421400 
  139000    1.5652121 -0.065011464 -0.065011464    2.2828011     1.483879 -0.065011464    2.3478126   421400 
  140000     1.566069 -0.066313902 -0.066313902     2.282784    1.4808417 -0.066313902    2.3490979   421400 
  141000     1.564948 -0.065706079 -0.065706079    2.2817103    1.4817165 -0.065706079    2.3474164   421400 
  142000    1.5635297 -0.063898555 -0.063898555    2.2813904    1.4865005 -0.063898555     2.345289   421400 
  143000    1.5638416 -0.066040419 -0.066040419    2.2797164    1.4800919 -0.066040419    2.3457569   421400 
  144000    1.5613084 -0.064498644 -0.064498644    2.2774584    1.4844461 -0.064498644    2.3419571   421400 
  145000     1.561605 -0.066415055 -0.066415055    2.2759869     1.477763 -0.066415055    2.3424019   421400 
  146000    1.5595709 -0.064350581 -0.064350581    2.2750002     1.482873 -0.064350581    2.3393508   421400 
  147000    1.5582689 -0.066400712 -0.066400712     2.270997    1.4800203 -0.066400712    2.3373977   421400 
  148000    1.5578173 -0.067813345 -0.067813345    2.2689071    1.4740521 -0.067813345    2.3367205   421400 
  149000    1.5558563 -0.066584934 -0.066584934     2.267194    1.4764472 -0.066584934    2.3337789   421400 
  150000    1.5556571 -0.068567197 -0.068567197    2.2649129    1.4714183 -0.068567197    2.3334801   421400 
  151000    1.5535378 -0.067027712 -0.067027712    2.2632735     1.474899 -0.067027712    2.3303012   421400 
  152000    1.5541448 -0.068553429 -0.068553429    2.2626582    1.4727874 -0.068553429    2.3312116   421400 
  153000    1.5516134 -0.066339144 -0.066339144    2.2610755    1.4743292 -0.066339144    2.3274146   421400 
  154000    1.5499871 -0.065477319 -0.065477319    2.2594979    1.4770199 -0.065477319    2.3249752   421400 
  155000    1.5505273 -0.066883168 -0.066883168    2.2589023    1.4735977 -0.066883168    2.3257855   421400 
  156000    1.5489404 -0.066734531 -0.066734531    2.2566706    1.4718518 -0.066734531    2.3234051   421400 
  157000    1.5495718 -0.068310742 -0.068310742    2.2560414    1.4680268 -0.068310742    2.3243522   421400 
  158000    1.5482499 -0.067833621 -0.067833621    2.2545358    1.4695511 -0.067833621    2.3223694   421400 
  159000    1.5470293  -0.06788392  -0.06788392    2.2526545    1.4677142  -0.06788392    2.3205384   421400 
  160000    1.5466325 -0.068074294 -0.068074294     2.251869    1.4651393 -0.068074294    2.3199432   421400 
  161000    1.5450845 -0.065650868 -0.065650868    2.2519703    1.4713294 -0.065650868    2.3176212   421400 
  162000    1.5460149  -0.06835456  -0.06835456    2.2506623    1.4648968  -0.06835456    2.3190169   421400 
  163000    1.5451204 -0.068720797 -0.068720797    2.2489544    1.4663155 -0.068720797    2.3176751   421400 
  164000     1.543516 -0.068368729 -0.068368729    2.2468998    1.4657666 -0.068368729    2.3152685   421400 
  165000    1.5427184 -0.069536664 -0.069536664    2.2445354    1.4639515 -0.069536664    2.3140721   421400 
  166000    1.5416395  -0.06975245  -0.06975245    2.2427013    1.4620192  -0.06975245    2.3124538   421400 
  167000    1.5396643 -0.068308706 -0.068308706    2.2411823    1.4645382 -0.068308706     2.309491   421400 
  168000    1.5386674  -0.06718628  -0.06718628    2.2408093    1.4664441  -0.06718628    2.3079956   421400 
  169000    1.5397372 -0.071269488 -0.071269488    2.2383309    1.4580445 -0.071269488    2.3096004   421400 
  170000     1.537543 -0.069244084 -0.069244084     2.237065    1.4608556 -0.069244084    2.3063091   421400 
  171000    1.5380781 -0.070841551 -0.070841551    2.2362702     1.458653 -0.070841551    2.3071117   421400 
  172000    1.5355153 -0.070140577 -0.070140577    2.2331269    1.4565184 -0.070140577    2.3032675   421400 
  173000     1.534831 -0.071069489 -0.071069489    2.2311715    1.4524799 -0.071069489     2.302241   421400 
  174000     1.534954 -0.071591278 -0.071591278    2.2308343    1.4550404 -0.071591278    2.3024256   421400 
  175000    1.5348701 -0.072089464 -0.072089464    2.2302102    1.4517893 -0.072089464    2.3022996   421400 
  176000     1.533977 -0.071098783 -0.071098783    2.2298613     1.451443 -0.071098783      2.30096   421400 
  177000     1.533022  -0.07029663  -0.07029663    2.2292309    1.4552754  -0.07029663    2.2995275   421400 
  178000    1.5326566  -0.07146317  -0.07146317    2.2275162    1.4509688  -0.07146317    2.2989794   421400 
  179000    1.5306711  -0.07040066  -0.07040066    2.2256005    1.4538989  -0.07040066    2.2960012   421400 
  180000    1.5300272 -0.070801157 -0.070801157    2.2242342    1.4512846 -0.070801157    2.2950353   421400 
  181000    1.5288666 -0.070957304 -0.070957304    2.2223372    1.4499242 -0.070957304    2.2932945   421400 
  182000    1.5290741 -0.071617902 -0.071617902    2.2219879     1.451275 -0.071617902    2.2936058   421400 
  183000    1.5274203 -0.070836579 -0.070836579    2.2202885    1.4508499 -0.070836579     2.291125   421400 
  184000    1.5255228  -0.07114174  -0.07114174     2.217137    1.4513572  -0.07114174    2.2882787   421400 
  185000    1.5252549 -0.073557432 -0.073557432    2.2143195    1.4442026 -0.073557432    2.2878769   421400 
  186000    1.5243067 -0.073053471 -0.073053471    2.2134012    1.4460221 -0.073053471    2.2864547   421400 
  187000    1.5222143  -0.07221696  -0.07221696    2.2110991    1.4482668  -0.07221696    2.2833161   421400 
  188000    1.5221745 -0.072971675 -0.072971675    2.2102846    1.4434688 -0.072971675    2.2832563   421400 
  189000     1.521952 -0.072975396 -0.072975396    2.2099472    1.4448568 -0.072975396    2.2829226   421400 
  190000    1.5204184 -0.071918814 -0.071918814    2.2087034    1.4459983 -0.071918814    2.2806222   421400 
  191000     1.518336  -0.07035077  -0.07035077    2.2071479    1.4505081  -0.07035077    2.2774987   421400 
  192000    1.5204687  -0.07403231  -0.07403231    2.2066654    1.4388811  -0.07403231    2.2806977   421400 
  193000    1.5179212 -0.072423666 -0.072423666    2.2044527    1.4438095 -0.072423666    2.2768764   421400 
  194000    1.5195071 -0.074654934 -0.074654934    2.2046004    1.4380136 -0.074654934    2.2792553   421400 
  195000    1.5174812 -0.072915163 -0.072915163    2.2033012    1.4412974 -0.072915163    2.2762164   421400 
  196000    1.5165514 -0.071898419 -0.071898419    2.2029232    1.4429464 -0.071898419    2.2748217   421400 
  197000    1.5156152 -0.073622116 -0.073622116    2.1997953    1.4400874 -0.073622116    2.2734174   421400 
  198000    1.5133177 -0.072050648 -0.072050648    2.1979206    1.4417121 -0.072050648    2.2699712   421400 
  199000    1.5130738 -0.073313109 -0.073313109    2.1962922    1.4369425 -0.073313109    2.2696053   421400 
  200000    1.5139775 -0.074712637 -0.074712637    2.1962482    1.4354872 -0.074712637    2.2709609   421400 
  201000    1.5115791 -0.073021752 -0.073021752    2.1943415    1.4378462 -0.073021752    2.2673633   421400 
  202000    1.5123797  -0.07534383  -0.07534383    2.1932203    1.4334449  -0.07534383    2.2685642   421400 
  203000    1.5113527  -0.07590598  -0.07590598    2.1911178    1.4321045  -0.07590598    2.2670237   421400 
  204000    1.5106494 -0.075860329 -0.075860329    2.1901084    1.4309347 -0.075860329    2.2659688   421400 
  205000    1.5090669 -0.075948246 -0.075948246    2.1876468    1.4308165 -0.075948246     2.263595   421400 
  206000    1.5059468 -0.074297669 -0.074297669    2.1846172    1.4347681 -0.074297669    2.2589149   421400 
  207000    1.5059455 -0.075018563 -0.075018563    2.1838944     1.431625 -0.075018563     2.258913   421400 
  208000    1.5048632 -0.074806694 -0.074806694    2.1824828     1.432893 -0.074806694    2.2572895   421400 
  209000    1.5045449 -0.075013291 -0.075013291    2.1817987    1.4310098 -0.075013291     2.256812   421400 
  210000    1.5029126 -0.074861868 -0.074861868    2.1795017    1.4314504 -0.074861868    2.2543636   421400 
  211000    1.5016972 -0.075299934 -0.075299934    2.1772405    1.4298616 -0.075299934    2.2525404   421400 
  212000    1.4999256 -0.073473547 -0.073473547    2.1764096    1.4319758 -0.073473547    2.2498831   421400 
  213000    1.5021365 -0.076408491 -0.076408491     2.176791    1.4262779 -0.076408491    2.2531995   421400 
  214000    1.5000657 -0.074969663 -0.074969663    2.1751235    1.4278637 -0.074969663    2.2500932   421400 
  215000    1.4997447 -0.076057027 -0.076057027    2.1735546    1.4256289 -0.076057027    2.2496117   421400 
  216000    1.5001598 -0.076275246 -0.076275246    2.1739592    1.4254903 -0.076275246    2.2502344   421400 
  217000    1.4990259 -0.076474307 -0.076474307    2.1720592    1.4239326 -0.076474307    2.2485336   421400 
  218000     1.498105 -0.075876255 -0.075876255    2.1712759    1.4250571 -0.075876255    2.2471521   421400 
  219000    1.4986769 -0.077890416 -0.077890416    2.1701195     1.418834 -0.077890416    2.2480099   421400 
  220000    1.4990911 -0.079268798 -0.079268798    2.1693625    1.4189311 -0.079268798    2.2486313   421400 
  221000    1.4962006 -0.076005762 -0.076005762    2.1682898    1.4250888 -0.076005762    2.2442956   421400 
  222000    1.4961673 -0.078183582 -0.078183582     2.166062    1.4187016 -0.078183582    2.2442456   421400 
  223000    1.4950388 -0.077893331 -0.077893331    2.1646596    1.4189377 -0.077893331    2.2425529   421400 
  224000    1.4938387 -0.076245613 -0.076245613    2.1645071    1.4235486 -0.076245613    2.2407527   421400 
  225000    1.4940878 -0.078344249 -0.078344249    2.1627821    1.4166415 -0.078344249    2.2411264   421400 
  226000    1.4939901   -0.0786814   -0.0786814    2.1622984    1.4152995   -0.0786814    2.2409798   421400 
  227000     1.491299 -0.076888875 -0.076888875    2.1600542    1.4183962 -0.076888875    2.2369431   421400 
  228000    1.4922497   -0.0791499   -0.0791499    2.1592193    1.4137598   -0.0791499    2.2383692   421400 
  229000    1.4907068 -0.079265608 -0.079265608    2.1567893    1.4154972 -0.079265608     2.236055   421400 
  230000    1.4890871 -0.078774695 -0.078774695    2.1548507    1.4133303 -0.078774695    2.2336254   421400 
  231000    1.4887492 -0.078965018 -0.078965018    2.1541535    1.4107162 -0.078965018    2.2331185   421400 
  232000    1.4861226 -0.077753871 -0.077753871    2.1514248    1.4135733 -0.077753871    2.2291787   421400 
  233000    1.4867501 -0.079507993 -0.079507993    2.1506119    1.4108932 -0.079507993    2.2301199   421400 
  234000    1.4859705 -0.079987504 -0.079987504    2.1489629    1.4095719 -0.079987504    2.2289504   421400 
  235000    1.4839288 -0.078122695 -0.078122695    2.1477653    1.4107704 -0.078122695     2.225888   421400 
  236000    1.4844165  -0.07985818  -0.07985818    2.1467613    1.4089342  -0.07985818    2.2266195   421400 
  237000    1.4830662 -0.078061997 -0.078061997    2.1465321    1.4126039 -0.078061997    2.2245941   421400 
  238000    1.4832766 -0.080473084 -0.080473084    2.1444365    1.4069825 -0.080473084    2.2249096   421400 
  239000    1.4815455 -0.079651927 -0.079651927    2.1426611     1.408528 -0.079651927     2.222313   421400 
  240000    1.4813044 -0.080642495 -0.080642495    2.1413088    1.4050269 -0.080642495    2.2219513   421400 
  241000     1.478949 -0.079467692 -0.079467692    2.1389506    1.4080287 -0.079467692    2.2184183   421400 
  242000    1.4794299 -0.080711551 -0.080711551     2.138428    1.4033151 -0.080711551    2.2191396   421400 
  243000    1.4777553 -0.079399645 -0.079399645     2.137228    1.4075925 -0.079399645    2.2166277   421400 
  244000    1.4778358 -0.079728727 -0.079728727    2.1370196    1.4050203 -0.079728727    2.2167484   421400 
  245000    1.4777524 -0.082114643 -0.082114643    2.1345088    1.3994104 -0.082114643    2.2166234   421400 
  246000     1.476552  -0.08073296  -0.08073296    2.1340898     1.402024  -0.08073296    2.2148228   421400 
  247000    1.4754999  -0.07874469  -0.07874469    2.1344999    1.4077866  -0.07874469    2.2132446   421400 
  248000    1.4751531 -0.080840187 -0.080840187    2.1318842    1.4030778 -0.080840187    2.2127244   421400 
  249000    1.4750764 -0.082376148 -0.082376148    2.1302332    1.3972344 -0.082376148    2.2126094   421400 
  250000    1.4732664 -0.081517728 -0.081517728    2.1283766    1.4005982 -0.081517728    2.2098944   421400 
  251000    1.4724048 -0.081770347 -0.081770347    2.1268316     1.398034 -0.081770347    2.2086019   421400 
  252000    1.4735536 -0.084050713 -0.084050713    2.1262745    1.3928333 -0.084050713    2.2103252   421400 
  253000    1.4697596 -0.079508075 -0.079508075    2.1251261    1.4025764 -0.079508075    2.2046342   421400 
  254000    1.4712616 -0.082228161 -0.082228161     2.124659    1.3969092 -0.082228161    2.2068871   421400 
  255000    1.4701178 -0.082623906 -0.082623906    2.1225476    1.3934022 -0.082623906    2.2051715   421400 
  256000    1.4690249 -0.082036646 -0.082036646    2.1214955    1.3960116 -0.082036646    2.2035322   421400 
  257000    1.4692981 -0.083647986 -0.083647986     2.120294    1.3925533 -0.083647986     2.203942   421400 
  258000    1.4665254 -0.082141855 -0.082141855    2.1176411    1.3959917 -0.082141855    2.1997829   421400 
  259000    1.4659774 -0.081645338 -0.081645338    2.1173155    1.3964727 -0.081645338    2.1989608   421400 
  260000     1.465318 -0.083908484 -0.083908484    2.1140633    1.3896269 -0.083908484    2.1979718   421400 
  261000    1.4640458 -0.083669449 -0.083669449     2.112394    1.3893897 -0.083669449    2.1960635   421400 
  262000    1.4644417 -0.084624034 -0.084624034    2.1120333    1.3871454 -0.084624034    2.1966573   421400 
  263000    1.4620566   -0.0829765   -0.0829765    2.1101032    1.3898023   -0.0829765    2.1930797   421400 
  264000    1.4597326 -0.081599227 -0.081599227    2.1079945    1.3936963 -0.081599227    2.1895937   421400 
  265000    1.4600459 -0.082552761 -0.082552761    2.1075109    1.3910518 -0.082552761    2.1900637   421400 
  266000    1.4606148 -0.084221833 -0.084221833    2.1066952    1.3866822 -0.084221833     2.190917   421400 
  267000    1.4586515   -0.0822666   -0.0822666    2.1057054    1.3907183   -0.0822666     2.187972   421400 
  268000    1.4595246 -0.085037093 -0.085037093    2.1042446     1.384543 -0.085037093    2.1892817   421400 
  269000    1.4594097 -0.085272258 -0.085272258    2.1038371    1.3839342 -0.085272258    2.1891094   421400 
  270000    1.4573035 -0.083830849 -0.083830849    2.1021192    1.3853936 -0.083830849    2.1859501   421400 
  271000    1.4553274 -0.083035243 -0.083035243    2.0999507    1.3877784 -0.083035243     2.182986   421400 
  272000     1.455197 -0.084003235 -0.084003235    2.0987871    1.3849187 -0.084003235    2.1827904   421400 
  273000    1.4546575  -0.08499563  -0.08499563    2.0969855    1.3813536  -0.08499563    2.1819811   421400 
  274000    1.4554308 -0.086825837 -0.086825837    2.0963152    1.3775721 -0.086825837     2.183141   421400 
  275000     1.453277  -0.08424779  -0.08424779    2.0956625    1.3841384  -0.08424779    2.1799103   421400 
  276000      1.45293 -0.084191226 -0.084191226    2.0951985    1.3826015 -0.084191226    2.1793898   421400 
  277000    1.4525445 -0.085415763 -0.085415763    2.0933959    1.3804703 -0.085415763    2.1788116   421400 
  278000    1.4523306 -0.086288241 -0.086288241    2.0922025    1.3784936 -0.086288241    2.1784907   421400 
  279000    1.4509814 -0.085653203 -0.085653203    2.0908137    1.3781333 -0.085653203    2.1764669   421400 
  280000    1.4500447 -0.085868395 -0.085868395    2.0891935    1.3778542 -0.085868395    2.1750619   421400 
  281000    1.4490069 -0.086091848 -0.086091848    2.0874134    1.3757848 -0.086091848    2.1735052   421400 
  282000    1.4483686 -0.085851157 -0.085851157    2.0866965    1.3752594 -0.085851157    2.1725477   421400 
  283000    1.4474434  -0.08461259  -0.08461259    2.0865474    1.3785302  -0.08461259    2.1711599   421400 
  284000    1.4472842 -0.084799092 -0.084799092     2.086122    1.3781772 -0.084799092    2.1709211   421400 
  285000    1.4479288 -0.087405591 -0.087405591    2.0844824    1.3715368 -0.087405591     2.171888   421400 
  286000    1.4451736 -0.084664531 -0.084664531    2.0830908    1.3787928 -0.084664531    2.1677553   421400 
  287000    1.4453525 -0.086725139 -0.086725139    2.0812985    1.3720079 -0.086725139    2.1680236   421400 
  288000     1.444874 -0.087031418 -0.087031418    2.0802744    1.3709862 -0.087031418    2.1673058   421400 
  289000    1.4435053 -0.086497051 -0.086497051    2.0787558    1.3741601 -0.086497051    2.1652528   421400 
  290000    1.4432276 -0.087751142 -0.087751142    2.0770851    1.3680737 -0.087751142    2.1648362   421400 
  291000    1.4412907  -0.08614422  -0.08614422    2.0757867    1.3730622  -0.08614422    2.1619309   421400 
  292000    1.4412782 -0.087328058 -0.087328058    2.0745841    1.3691877 -0.087328058    2.1619121   421400 
  293000    1.4406465 -0.087440321 -0.087440321    2.0735243    1.3691826 -0.087440321    2.1609646   421400 
  294000     1.439943 -0.089301802 -0.089301802    2.0706076    1.3641399 -0.089301802    2.1599094   421400 
  295000    1.4377242 -0.085911359 -0.085911359    2.0706698    1.3715525 -0.085911359    2.1565812   421400 
  296000    1.4376114 -0.087170498 -0.087170498    2.0692415    1.3678674 -0.087170498     2.156412   421400 
  297000    1.4366785 -0.088021045 -0.088021045    2.0669915    1.3651189 -0.088021045    2.1550126   421400 
  298000    1.4368205 -0.088478942 -0.088478942    2.0667466    1.3649709 -0.088478942    2.1552256   421400 
  299000     1.434598 -0.086696442 -0.086696442    2.0651955    1.3682183 -0.086696442    2.1518919   421400 
  300000    1.4346677 -0.088862896 -0.088862896    2.0631335    1.3626553 -0.088862896    2.1519964   421400 
  301000    1.4341373 -0.089357817 -0.089357817     2.061843    1.3612143 -0.089357817    2.1512008   421400 
  302000    1.4323216 -0.089589871 -0.089589871    2.0588874    1.3592814 -0.089589871    2.1484773   421400 
  303000    1.4315604 -0.088715316 -0.088715316    2.0586201    1.3621097 -0.088715316    2.1473354   421400 
  304000     1.431299 -0.088906958 -0.088906958    2.0580364    1.3606059 -0.088906958    2.1469433   421400 
  305000    1.4298859  -0.08822729  -0.08822729    2.0565965    1.3625181  -0.08822729    2.1448238   421400 
  306000    1.4297425 -0.088883255 -0.088883255    2.0557255    1.3608619 -0.088883255    2.1446087   421400 
  307000     1.428556 -0.087890286 -0.087890286    2.0549387    1.3620417 -0.087890286     2.142829   421400 
  308000     1.429372 -0.089805707 -0.089805707    2.0542471    1.3585039 -0.089805707    2.1440529   421400 
  309000    1.4305319 -0.091659905 -0.091659905    2.0541328    1.3530752 -0.091659905    2.1457927   421400 
  310000    1.4278596 -0.089620461 -0.089620461    2.0521639    1.3568913 -0.089620461    2.1417844   421400 
  311000    1.4261651 -0.088366713 -0.088366713    2.0508759    1.3619961 -0.088366713    2.1392426   421400 
  312000    1.4256331 -0.089581478 -0.089581478    2.0488631    1.3567845 -0.089581478    2.1384446   421400 
  313000    1.4251912 -0.089788948 -0.089788948    2.0479928    1.3566128 -0.089788948    2.1377817   421400 
  314000    1.4247594 -0.091783445 -0.091783445    2.0453506    1.3500241 -0.091783445     2.137134   421400 
  315000    1.4248958 -0.091968744 -0.091968744    2.0453699    1.3508085 -0.091968744    2.1373387   421400 
  316000    1.4227951 -0.089007479 -0.089007479    2.0451802    1.3563016 -0.089007479    2.1341877   421400 
  317000    1.4216395 -0.088591794 -0.088591794    2.0438625     1.357525 -0.088591794    2.1324543   421400 
  318000    1.4216134 -0.090284235 -0.090284235    2.0421307    1.3523019 -0.090284235     2.132415   421400 
  319000    1.4214563 -0.090946957 -0.090946957    2.0412325    1.3509352 -0.090946957    2.1321794   421400 
  320000     1.421551 -0.090166622 -0.090166622    2.0421548    1.3519711 -0.090166622    2.1323215   421400 
  321000    1.4213653 -0.091162387 -0.091162387    2.0408805    1.3501122 -0.091162387    2.1320429   421400 
  322000    1.4205993 -0.091735576 -0.091735576    2.0391583    1.3470877 -0.091735576    2.1308939   421400 
  323000    1.4198367 -0.091912952 -0.091912952    2.0378371     1.346634 -0.091912952      2.12975   421400 
  324000    1.4191688 -0.091865862 -0.091865862    2.0368823     1.347875 -0.091865862    2.1287481   421400 
  325000    1.4185331 -0.092922923 -0.092922923    2.0348717    1.3465457 -0.092922923    2.1277946   421400 
  326000    1.4164899 -0.091188057 -0.091188057    2.0335417    1.3477651 -0.091188057    2.1247297   421400 
  327000     1.415408  -0.09082506  -0.09082506    2.0322818    1.3486824  -0.09082506    2.1231069   421400 
  328000    1.4160467 -0.093721755 -0.093721755    2.0303432    1.3411327 -0.093721755     2.124065   421400 
  329000     1.413772 -0.090298422 -0.090298422    2.0303545    1.3492687 -0.090298422    2.1206529   421400 
  330000    1.4144073 -0.092950688 -0.092950688    2.0286553    1.3423903 -0.092950688    2.1216059   421400 
  331000    1.4147125 -0.093336901 -0.093336901    2.0287269    1.3438633 -0.093336901    2.1220638   421400 
  332000     1.413239 -0.091895174 -0.091895174    2.0279583    1.3438365 -0.091895174    2.1198535   421400 
  333000    1.4119071 -0.091773496 -0.091773496    2.0260822    1.3455208 -0.091773496    2.1178557   421400 
  334000    1.4125722 -0.094092671 -0.094092671    2.0247607    1.3394061 -0.094092671    2.1188533   421400 
  335000    1.4114971 -0.092940219 -0.092940219    2.0243005    1.3414718 -0.092940219    2.1172407   421400 
  336000    1.4112725 -0.094195135 -0.094195135    2.0227085     1.337803 -0.094195135    2.1169037   421400 
  337000    1.4089359  -0.09296404  -0.09296404    2.0204348    1.3396085  -0.09296404    2.1133989   421400 
  338000    1.4089928 -0.094771425 -0.094771425    2.0187128    1.3353053 -0.094771425    2.1134842   421400 
  339000    1.4072606 -0.093255122 -0.093255122    2.0176308    1.3372688 -0.093255122     2.110886   421400 
  340000    1.4081129 -0.092930807 -0.092930807    2.0192336    1.3400765 -0.092930807    2.1121644   421400 
  341000    1.4070024 -0.094044221 -0.094044221    2.0164543    1.3389553 -0.094044221    2.1104985   421400 
  342000    1.4063684 -0.093288667 -0.093288667     2.016259    1.3387673 -0.093288667    2.1095477   421400 
  343000    1.4054457  -0.09264015  -0.09264015    2.0155233    1.3396196  -0.09264015    2.1081635   421400 
  344000    1.4041324 -0.091108258 -0.091108258    2.0150853    1.3424996 -0.091108258    2.1061936   421400 
  345000    1.4043003 -0.093000715 -0.093000715    2.0134447    1.3389985 -0.093000715    2.1064454   421400 
  346000    1.4042135  -0.09302173  -0.09302173    2.0132935    1.3377366  -0.09302173    2.1063153   421400 
  347000    1.4039252   -0.0951037   -0.0951037    2.0107791    1.3303438   -0.0951037    2.1058828   421400 
  348000    1.4017866 -0.092324701 -0.092324701    2.0103502     1.337406 -0.092324701    2.1026749   421400 
  349000    1.4031255 -0.094021344 -0.094021344     2.010662    1.3362411 -0.094021344    2.1046833   421400 
  350000    1.4031108 -0.094971234 -0.094971234    2.0096899    1.3332935 -0.094971234    2.1046612   421400 
  351000    1.4009695 -0.093716384 -0.093716384    2.0077329    1.3333598 -0.093716384    2.1014493   421400 
  352000     1.400945 -0.093863409 -0.093863409     2.007549      1.33259 -0.093863409    2.1014124   421400 
  353000    1.4013253 -0.095118778 -0.095118778    2.0068642    1.3301799 -0.095118778     2.101983   421400 
  354000    1.4005356 -0.096215582 -0.096215582    2.0045828    1.3255526 -0.096215582    2.1007984   421400 
  355000    1.3982793 -0.094836665 -0.094836665    2.0025774    1.3294759 -0.094836665     2.097414   421400 
  356000    1.3968296 -0.093641582 -0.093641582    2.0015979    1.3321551 -0.093641582    2.0952395   421400 
  357000    1.3953757 -0.094397077 -0.094397077    1.9986616    1.3294349 -0.094397077    2.0930586   421400 
  358000    1.3957261 -0.096524514 -0.096524514    1.9970597    1.3246441 -0.096524514    2.0935842   421400 
  359000     1.394159 -0.094552388 -0.094552388    1.9966812    1.3294869 -0.094552388    2.0912336   421400 
  360000    1.3941371 -0.095468818 -0.095468818    1.9957319    1.3264071 -0.095468818    2.0912008   421400 
  361000    1.3933309 -0.095646402 -0.095646402    1.9943449    1.3268527 -0.095646402    2.0899913   421400 
  362000    1.3919793  -0.09433607  -0.09433607    1.9936279    1.3299379  -0.09433607     2.087964   421400 
  363000    1.3917945 -0.095052324 -0.095052324    1.9926345    1.3266375 -0.095052324    2.0876868   421400 
  364000    1.3922167 -0.096402795 -0.096402795    1.9919172    1.3238035 -0.096402795      2.08832   421400 
  365000    1.3912615 -0.095920209 -0.095920209    1.9909671    1.3244029 -0.095920209    2.0868873   421400 
  366000    1.3908719 -0.096956963 -0.096956963     1.989346    1.3224667 -0.096956963     2.086303   421400 
  367000    1.3900035 -0.097110988 -0.097110988    1.9878894    1.3218875 -0.097110988    2.0850003   421400 
  368000    1.3897933 -0.097742488 -0.097742488    1.9869426    1.3186722 -0.097742488    2.0846851   421400 
  369000    1.3873738 -0.095485541 -0.095485541    1.9855702    1.3233943 -0.095485541    2.0810558   421400 
  370000    1.3879673 -0.097674638 -0.097674638    1.9842713    1.3173202 -0.097674638    2.0819459   421400 
  371000    1.3868497 -0.096439218 -0.096439218    1.9838303    1.3200076 -0.096439218    2.0802695   421400 
  372000    1.3874901 -0.097862663 -0.097862663    1.9833675     1.316672 -0.097862663    2.0812302   421400 
  373000    1.3879083 -0.099305938 -0.099305938    1.9825516    1.3131067 -0.099305938    2.0818575   421400 
  374000    1.3861543 -0.098023358 -0.098023358    1.9812032     1.316936 -0.098023358    2.0792266   421400 
  375000    1.3854101 -0.097675365 -0.097675365    1.9804348    1.3170106 -0.097675365    2.0781102   421400 
  376000    1.3845769 -0.098660929 -0.098660929    1.9781995    1.3129196 -0.098660929    2.0768604   421400 
  377000    1.3823906 -0.096655024 -0.096655024     1.976926    1.3180576 -0.096655024     2.073581   421400 
  378000    1.3820759 -0.097779873 -0.097779873    1.9753291    1.3164767 -0.097779873     2.073109   421400 
  379000    1.3805226 -0.096848448 -0.096848448    1.9739306    1.3176828 -0.096848448    2.0707791   421400 
  380000     1.381496 -0.099568759 -0.099568759    1.9726703    1.3094447 -0.099568759    2.0722391   421400 
  381000    1.3798369 -0.098481713 -0.098481713    1.9712687    1.3129311 -0.098481713    2.0697505   421400 
  382000    1.3802146 -0.098996829 -0.098996829    1.9713201    1.3122482 -0.098996829     2.070317   421400 
  383000    1.3784383 -0.098338386 -0.098338386    1.9693141    1.3125191 -0.098338386    2.0676525   421400 
  384000    1.3782017 -0.099688425 -0.099688425    1.9676091    1.3075969 -0.099688425    2.0672976   421400 
  385000    1.3771035  -0.09950655  -0.09950655    1.9661438    1.3082692  -0.09950655    2.0656504   421400 
  386000     1.376041 -0.098635965 -0.098635965    1.9654207    1.3118527 -0.098635965    2.0640567   421400 
  387000    1.3745682  -0.09823783  -0.09823783    1.9636096    1.3114167  -0.09823783    2.0618475   421400 
  388000    1.3766042  -0.10129335  -0.10129335    1.9636081    1.3028571  -0.10129335    2.0649014   421400 
  389000    1.3739985 -0.099092279 -0.099092279    1.9619005    1.3077305 -0.099092279    2.0609928   421400 
  390000    1.3734331 -0.099631256 -0.099631256    1.9605135    1.3066422 -0.099631256    2.0601448   421400 
  391000    1.3717279 -0.099567819 -0.099567819    1.9580191    1.3063641 -0.099567819    2.0575869   421400 
  392000    1.3708596   -0.1003366   -0.1003366    1.9559479    1.3020145   -0.1003366    2.0562845   421400 
  393000     1.371266  -0.10085544  -0.10085544    1.9560387    1.3040056  -0.10085544    2.0568941   421400 
  394000    1.3696136  -0.10033673  -0.10033673    1.9540788    1.3044382  -0.10033673    2.0544155   421400 
  395000    1.3695989 -0.099886326 -0.099886326    1.9545072     1.304134 -0.099886326    2.0543935   421400 
  396000    1.3700971  -0.10272748  -0.10272748    1.9524132    1.2975504  -0.10272748    2.0551407   421400 
  397000    1.3696594  -0.10196241  -0.10196241    1.9525218    1.2996725  -0.10196241    2.0544842   421400 
  398000    1.3674267  -0.10037587  -0.10037587    1.9507593    1.3035503  -0.10037587    2.0511352   421400 
  399000    1.3677607  -0.10089075  -0.10089075    1.9507454    1.3022095  -0.10089075    2.0516362   421400 
  400000    1.3671914  -0.10042405  -0.10042405    1.9503582    1.3024222  -0.10042405    2.0507823   421400 
  401000    1.3678643  -0.10295711  -0.10295711    1.9488345    1.2975723  -0.10295711    2.0517917   421400 
  402000    1.3670205  -0.10199105  -0.10199105    1.9485348    1.2977578  -0.10199105    2.0505259   421400 
  403000    1.3655968  -0.10213392  -0.10213392    1.9462565    1.2983295  -0.10213392    2.0483904   421400 
  404000    1.3648566  -0.10259258  -0.10259258    1.9446875    1.2934009  -0.10259258      2.04728   421400 
  405000     1.362927  -0.10024066  -0.10024066     1.944145    1.3012421  -0.10024066    2.0443857   421400 
  406000    1.3632814  -0.10160897  -0.10160897    1.9433083    1.2966955  -0.10160897    2.0449173   421400 
  407000    1.3625753  -0.10175419  -0.10175419    1.9421039     1.297037  -0.10175419    2.0438581   421400 
  408000    1.3634905  -0.10342085  -0.10342085    1.9418101    1.2926938  -0.10342085     2.045231   421400 
  409000    1.3611501   -0.1021736   -0.1021736    1.9395467    1.2942242   -0.1021736    2.0417203   421400 
  410000    1.3606694  -0.10139266  -0.10139266    1.9396067    1.2944982  -0.10139266    2.0409993   421400 
  411000    1.3604089  -0.10168917  -0.10168917    1.9389193    1.2958146  -0.10168917    2.0406084   421400 
  412000    1.3607791   -0.1026812   -0.1026812    1.9384827    1.2925679   -0.1026812    2.0411639   421400 
  413000    1.3592481  -0.10171517  -0.10171517    1.9371522    1.2965959  -0.10171517    2.0388674   421400 
  414000    1.3585704  -0.10338148  -0.10338148    1.9344693    1.2887304  -0.10338148    2.0378508   421400 
  415000    1.3576975  -0.10320917  -0.10320917    1.9333322    1.2910132  -0.10320917    2.0365414   421400 
  416000    1.3569698  -0.10259992  -0.10259992      1.93285    1.2910357  -0.10259992    2.0354499   421400 
  417000    1.3561616  -0.10373452  -0.10373452     1.930503    1.2897467  -0.10373452    2.0342375   421400 
  418000    1.3546955   -0.1028463   -0.1028463    1.9291921    1.2890185   -0.1028463    2.0320384   421400 
  419000    1.3533361  -0.10290663  -0.10290663    1.9270928    1.2896976  -0.10290663    2.0299994   421400 
  420000    1.3524203  -0.10270426  -0.10270426    1.9259214    1.2902071  -0.10270426    2.0286256   421400 
  421000    1.3532531  -0.10381703  -0.10381703    1.9260577    1.2883487  -0.10381703    2.0298748   421400 
  422000    1.3531955  -0.10431888  -0.10431888    1.9254696    1.2842344  -0.10431888    2.0297885   421400 
  423000    1.3522508  -0.10380061  -0.10380061    1.9245708    1.2867129  -0.10380061    2.0283714   421400 
  424000    1.3518863  -0.10298573  -0.10298573     1.924839    1.2882941  -0.10298573    2.0278247   421400 
  425000    1.3505621  -0.10308455  -0.10308455    1.9227538    1.2886519  -0.10308455    2.0258384   421400 
  426000    1.3512088  -0.10397923  -0.10397923    1.9228292    1.2851461  -0.10397923    2.0268084   421400 
  427000    1.3504816  -0.10494582  -0.10494582    1.9207718    1.2842148  -0.10494582    2.0257177   421400 
  428000    1.3491634  -0.10463502  -0.10463502    1.9191053    1.2820655  -0.10463502    2.0237404   421400 
  429000    1.3483217  -0.10329053  -0.10329053    1.9191872    1.2856723  -0.10329053    2.0224777   421400 
  430000    1.3487916  -0.10569067  -0.10569067    1.9174919    1.2787305  -0.10569067    2.0231825   421400 
  431000    1.3481023  -0.10470945  -0.10470945    1.9174393    1.2808171  -0.10470945    2.0221487   421400 
  432000     1.348599  -0.10594137  -0.10594137    1.9169523    1.2775724  -0.10594137    2.0228936   421400 
  433000    1.3469857  -0.10427946  -0.10427946    1.9161942    1.2835106  -0.10427946    2.0204737   421400 
  434000    1.3462152  -0.10429059  -0.10429059    1.9150274    1.2813234  -0.10429059     2.019318   421400 
  435000    1.3447055  -0.10349605  -0.10349605    1.9135574    1.2828346  -0.10349605    2.0170534   421400 
  436000    1.3442004  -0.10415947  -0.10415947    1.9121363    1.2830437  -0.10415947    2.0162958   421400 
  437000    1.3432258  -0.10423707  -0.10423707    1.9105969    1.2791203  -0.10423707    2.0148339   421400 
  438000    1.3440757  -0.10581808  -0.10581808    1.9102908    1.2763657  -0.10581808    2.0161088   421400 
  439000    1.3436742  -0.10584951  -0.10584951    1.9096571    1.2769615  -0.10584951    2.0155066   421400 
  440000    1.3425236  -0.10612517  -0.10612517    1.9076555    1.2755159  -0.10612517    2.0137807   421400 
  441000    1.3412769  -0.10546099  -0.10546099    1.9064496    1.2768365  -0.10546099    2.0119105   421400 
  442000    1.3407417  -0.10591137  -0.10591137    1.9051965    1.2764034  -0.10591137    2.0111078   421400 
  443000    1.3395007  -0.10548992  -0.10548992    1.9037563    1.2750517  -0.10548992    2.0092462   421400 
  444000    1.3391121  -0.10552917  -0.10552917    1.9031342    1.2751354  -0.10552917    2.0086634   421400 
  445000    1.3383568  -0.10625978  -0.10625978    1.9012706    1.2748835  -0.10625978    2.0075304   421400 
  446000    1.3382368  -0.10674217  -0.10674217    1.9006083    1.2731433  -0.10674217    2.0073505   421400 
  447000     1.337084  -0.10624857  -0.10624857    1.8993726    1.2737374  -0.10624857    2.0056212   421400 
  448000    1.3369228  -0.10668746  -0.10668746     1.898692     1.270823  -0.10668746    2.0053794   421400 
  449000    1.3352049  -0.10533894  -0.10533894    1.8974636    1.2750884  -0.10533894    2.0028026   421400 
  450000    1.3364379  -0.10812034  -0.10812034    1.8965317    1.2674489  -0.10812034     2.004652   421400 
  451000      1.33555   -0.1072739   -0.1072739    1.8960463    1.2705357   -0.1072739    2.0033202   421400 
  452000     1.333963  -0.10574991  -0.10574991    1.8951899    1.2730774  -0.10574991    2.0009398   421400 
  453000    1.3345087  -0.10795859  -0.10795859    1.8937998    1.2655938  -0.10795859    2.0017584   421400 
  454000    1.3332579  -0.10737292  -0.10737292    1.8925091    1.2693856  -0.10737292    1.9998821   421400 
  455000    1.3328301  -0.10750286  -0.10750286    1.8917376    1.2671418  -0.10750286    1.9992405   421400 
  456000    1.3306122  -0.10567426  -0.10567426    1.8902393     1.270984  -0.10567426    1.9959135   421400 
  457000    1.3317606  -0.10809343  -0.10809343    1.8895427    1.2659894  -0.10809343    1.9976361   421400 
  458000    1.3307692  -0.10788712  -0.10788712     1.888262    1.2654744  -0.10788712    1.9961491   421400 
  459000    1.3301609  -0.10830219  -0.10830219    1.8869345    1.2639835  -0.10830219    1.9952366   421400 
  460000    1.3298985   -0.1102964   -0.1102964    1.8845466    1.2565086   -0.1102964     1.994843   421400 
  461000    1.3287895   -0.1092471   -0.1092471    1.8839325    1.2632761   -0.1092471    1.9931796   421400 
  462000     1.328389  -0.10957385  -0.10957385    1.8830049    1.2630277  -0.10957385    1.9925788   421400 
  463000    1.3276496  -0.10889823  -0.10889823    1.8825714    1.2628892  -0.10889823    1.9914696   421400 
  464000    1.3267206  -0.10822631  -0.10822631    1.8818498    1.2647339  -0.10822631    1.9900761   421400 
  465000    1.3254717  -0.10750365  -0.10750365    1.8806992    1.2645096  -0.10750365    1.9882029   421400 
  466000    1.3249944  -0.10825823  -0.10825823    1.8792287    1.2627402  -0.10825823    1.9874869   421400 
  467000    1.3256605  -0.10925373  -0.10925373    1.8792323     1.261342  -0.10925373     1.988486   421400 
  468000    1.3262007  -0.10965904  -0.10965904    1.8796373    1.2593275  -0.10965904    1.9892963   421400 
  469000    1.3242373  -0.10875426  -0.10875426     1.877597    1.2589615  -0.10875426    1.9863513   421400 
  470000    1.3236152  -0.10905694  -0.10905694    1.8763612    1.2596511  -0.10905694    1.9854181   421400 
  471000    1.3210466  -0.10698967  -0.10698967    1.8745755    1.2633701  -0.10698967    1.9815652   421400 
  472000    1.3226116  -0.10996202  -0.10996202    1.8739506    1.2584047  -0.10996202    1.9839126   421400 
  473000    1.3214867  -0.10902778  -0.10902778    1.8731976     1.257186  -0.10902778    1.9822254   421400 
  474000    1.3220272  -0.11074949  -0.11074949    1.8722867    1.2543237  -0.11074949    1.9830362   421400 
  475000      1.31903  -0.10834555  -0.10834555    1.8701948    1.2569762  -0.10834555    1.9785404   421400 
  476000     1.320453  -0.11045413  -0.11045413    1.8702207    1.2554532  -0.11045413    1.9806748   421400 
  477000    1.3194014  -0.10948959  -0.10948959    1.8696078    1.2574937  -0.10948959    1.9790974   421400 
  478000    1.3194881  -0.11096908  -0.11096908    1.8682583    1.2534472  -0.11096908    1.9792274   421400 
  479000    1.3172295  -0.10874444  -0.10874444    1.8670951    1.2577193  -0.10874444    1.9758396   421400 
  480000    1.3172788  -0.11072321  -0.11072321    1.8651903    1.2534172  -0.11072321    1.9759135   421400 
  481000    1.3182265  -0.11208812  -0.11208812     1.865247    1.2505203  -0.11208812    1.9773351   421400 
  482000    1.3174322  -0.11186778  -0.11186778    1.8642758    1.2504876  -0.11186778    1.9761436   421400 
  483000    1.3161672  -0.11046544  -0.11046544    1.8637806    1.2532892  -0.11046544    1.9742461   421400 
  484000    1.3153126   -0.1106032   -0.1106032     1.862361     1.251041   -0.1106032    1.9729642   421400 
  485000    1.3149141  -0.11129142  -0.11129142     1.861075    1.2509328  -0.11129142    1.9723664   421400 
  486000    1.3141676  -0.11065144  -0.11065144    1.8605953    1.2513238  -0.11065144    1.9712468   421400 
  487000    1.3142943  -0.11229601  -0.11229601    1.8591408    1.2482522  -0.11229601    1.9714368   421400 
  488000    1.3141015  -0.11210263  -0.11210263     1.859045    1.2486546  -0.11210263    1.9711476   421400 
  489000    1.3119516  -0.11037981  -0.11037981    1.8575429      1.24987  -0.11037981    1.9679227   421400 
  490000    1.3126829  -0.11139357  -0.11139357    1.8576261    1.2488454  -0.11139357    1.9690197   421400 
  491000    1.3115072  -0.11131713  -0.11131713     1.855939     1.248757  -0.11131713    1.9672562   421400 
  492000    1.3107388  -0.11191632  -0.11191632    1.8541872    1.2464731  -0.11191632    1.9661036   421400 
  493000    1.3105855  -0.11245702  -0.11245702    1.8534165    1.2465861  -0.11245702    1.9658735   421400 
  494000    1.3096838  -0.11266492  -0.11266492    1.8518561    1.2437199  -0.11266492    1.9645211   421400 
  495000    1.3089443  -0.11161738  -0.11161738    1.8517945    1.2477509  -0.11161738    1.9634119   421400 
  496000    1.3088504  -0.11293887  -0.11293887     1.850332    1.2418813  -0.11293887    1.9632709   421400 
  497000    1.3082223  -0.11303408  -0.11303408    1.8492947    1.2429392  -0.11303408    1.9623288   421400 
  498000    1.3067608  -0.11254071  -0.11254071    1.8475958    1.2423499  -0.11254071    1.9601365   421400 
  499000    1.3055494  -0.11185185  -0.11185185    1.8464676    1.2427421  -0.11185185    1.9583195   421400 
  500000    1.3048716  -0.11267657  -0.11267657    1.8446262    1.2412911  -0.11267657    1.9573028   421400 
  501000    1.3044728  -0.11361866  -0.11361866    1.8430859    1.2380004  -0.11361866    1.9567046   421400 
  502000    1.3042517  -0.11289763  -0.11289763    1.8434752    1.2417345  -0.11289763    1.9563728   421400 
  503000    1.3040437  -0.11436146  -0.11436146    1.8416994    1.2374024  -0.11436146    1.9560609   421400 
  504000     1.303035  -0.11382933  -0.11382933    1.8407186    1.2380985  -0.11382933    1.9545479   421400 
  505000    1.3015073  -0.11303702  -0.11303702    1.8392193    1.2394015  -0.11303702    1.9522564   421400 
  506000    1.3009413  -0.11417865  -0.11417865    1.8372287    1.2386485  -0.11417865    1.9514073   421400 
  507000    1.2998353  -0.11286944  -0.11286944    1.8368789    1.2412449  -0.11286944    1.9497483   421400 
  508000    1.3012935  -0.11460692  -0.11460692    1.8373287    1.2349735  -0.11460692    1.9519357   421400 
  509000    1.2996496  -0.11356934  -0.11356934    1.8359004    1.2368479  -0.11356934    1.9494698   421400 
  510000    1.2996391  -0.11367774  -0.11367774    1.8357763    1.2373145  -0.11367774    1.9494541   421400 
  511000    1.2990423  -0.11396206  -0.11396206    1.8345968    1.2378791  -0.11396206    1.9485589   421400 
  512000    1.2990943  -0.11446593  -0.11446593    1.8341709    1.2354509  -0.11446593    1.9486368   421400 
  513000    1.2981078  -0.11452356  -0.11452356    1.8326335     1.234302  -0.11452356    1.9471571   421400 
  514000     1.297264  -0.11479802  -0.11479802    1.8310934    1.2328553  -0.11479802    1.9458914   421400 
  515000    1.2967809  -0.11489636  -0.11489636    1.8302704    1.2318376  -0.11489636    1.9451667   421400 
  516000    1.2941512  -0.11274273  -0.11274273    1.8284794    1.2359469  -0.11274273    1.9412222   421400 
  517000    1.2948536  -0.11482738  -0.11482738    1.8274484    1.2308062  -0.11482738    1.9422758   421400 
  518000    1.2933803  -0.11473478  -0.11473478    1.8253311    1.2303026  -0.11473478    1.9400659   421400 
  519000    1.2940826  -0.11545815  -0.11545815    1.8256611    1.2315298  -0.11545815    1.9411192   421400 
  520000    1.2941054  -0.11626339  -0.11626339      1.82489    1.2280911  -0.11626339    1.9411534   421400 
  521000    1.2941347  -0.11625163  -0.11625163    1.8249458    1.2279692  -0.11625163    1.9411974   421400 
  522000    1.2930483  -0.11621467  -0.11621467    1.8233531    1.2278087  -0.11621467    1.9395678   421400 
  523000    1.2908911  -0.11465291  -0.11465291    1.8216791    1.2286842  -0.11465291     1.936332   421400 
  524000    1.2921094  -0.11588895  -0.11588895    1.8222706    1.2292696  -0.11588895    1.9381596   421400 
  525000    1.2917422  -0.11651769  -0.11651769    1.8210911    1.2245965  -0.11651769    1.9376088   421400 
  526000    1.2911283  -0.11714525  -0.11714525    1.8195426    1.2249797  -0.11714525    1.9366878   421400 
  527000    1.2905562  -0.11721016  -0.11721016    1.8186195    1.2252565  -0.11721016    1.9358296   421400 
  528000    1.2889804  -0.11659646  -0.11659646    1.8168695    1.2250493  -0.11659646     1.933466   421400 
  529000    1.2872848  -0.11657131  -0.11657131    1.8143513    1.2237269  -0.11657131    1.9309226   421400 
  530000    1.2875268  -0.11706813  -0.11706813    1.8142174    1.2233904  -0.11706813    1.9312856   421400 
  531000    1.2866671  -0.11667154  -0.11667154    1.8133245    1.2241616  -0.11667154    1.9299961   421400 
  532000    1.2861979  -0.11452752  -0.11452752    1.8147648    1.2292968  -0.11452752    1.9292923   421400 
  533000    1.2871794  -0.11741725  -0.11741725    1.8133472    1.2201553  -0.11741725    1.9307645   421400 
  534000    1.2859623   -0.1157067   -0.1157067    1.8132322    1.2257955   -0.1157067    1.9289389   421400 
  535000    1.2857374  -0.11681522  -0.11681522    1.8117863    1.2232863  -0.11681522    1.9286015   421400 
  536000     1.285061  -0.11769638  -0.11769638    1.8098905    1.2186146  -0.11769638    1.9275869   421400 
  537000    1.2853236  -0.11832168  -0.11832168    1.8096592    1.2189444  -0.11832168    1.9279808   421400 
  538000    1.2838786  -0.11642369  -0.11642369    1.8093897    1.2227276  -0.11642369    1.9258134   421400 
  539000     1.283483  -0.11751857  -0.11751857    1.8077014     1.218773  -0.11751857      1.92522   421400 
  540000    1.2818499  -0.11631641  -0.11631641    1.8064539    1.2211537  -0.11631641    1.9227703   421400 
  541000    1.2819229  -0.11826885  -0.11826885    1.8046109    1.2174547  -0.11826885    1.9228798   421400 
  542000    1.2814438  -0.11809082  -0.11809082    1.8040703    1.2180339  -0.11809082    1.9221611   421400 
  543000    1.2815023  -0.11885817  -0.11885817    1.8033907    1.2156447  -0.11885817    1.9222489   421400 
  544000    1.2807516  -0.11819675  -0.11819675    1.8029261    1.2179985  -0.11819675    1.9211228   421400 
  545000    1.2797808  -0.11811891  -0.11811891    1.8015477    1.2170801  -0.11811891    1.9196667   421400 
  546000    1.2786924  -0.11819505  -0.11819505     1.799839    1.2173511  -0.11819505    1.9180341   421400 
  547000     1.277742  -0.11876365  -0.11876365    1.7978448    1.2140609  -0.11876365    1.9166084   421400 
  548000    1.2776279  -0.11901107  -0.11901107    1.7974262    1.2145387  -0.11901107    1.9164372   421400 
  549000    1.2771015  -0.11895695  -0.11895695    1.7966907    1.2137543  -0.11895695    1.9156477   421400 
  550000    1.2768173  -0.11878406  -0.11878406    1.7964373    1.2136741  -0.11878406    1.9152214   421400 
  551000      1.27529   -0.1184268   -0.1184268    1.7945037    1.2136062   -0.1184268    1.9129305   421400 
  552000    1.2752776  -0.11962412  -0.11962412    1.7932877    1.2116197  -0.11962412    1.9129118   421400 
  553000    1.2746431  -0.11953465  -0.11953465    1.7924254    1.2103832  -0.11953465    1.9119601   421400 
  554000    1.2741092  -0.11914045  -0.11914045    1.7920188    1.2117301  -0.11914045    1.9111592   421400 
  555000    1.2732222  -0.11796908  -0.11796908    1.7918596    1.2149108  -0.11796908    1.9098287   421400 
  556000    1.2738859  -0.11947928  -0.11947928     1.791345    1.2101151  -0.11947928    1.9108243   421400 
  557000    1.2729959  -0.11883892  -0.11883892    1.7906504    1.2118129  -0.11883892    1.9094893   421400 
  558000    1.2726002  -0.11811889  -0.11811889    1.7907769    1.2129801  -0.11811889    1.9088958   421400 
  559000     1.272403  -0.11912206  -0.11912206    1.7894779     1.208897  -0.11912206    1.9085999   421400 
  560000    1.2718612  -0.11930543  -0.11930543    1.7884818     1.209586  -0.11930543    1.9077872   421400 
  561000    1.2706994  -0.11870112  -0.11870112    1.7873434    1.2120507  -0.11870112    1.9060445   421400 
  562000     1.271677  -0.12046331  -0.12046331    1.7870477    1.2057159  -0.12046331     1.907511   421400 
  563000    1.2705962  -0.12127838  -0.12127838    1.7846115    1.2033734  -0.12127838    1.9058898   421400 
  564000    1.2699222  -0.12036334  -0.12036334    1.7845155    1.2068382  -0.12036334    1.9048788   421400 
  565000    1.2686455   -0.1196767   -0.1196767    1.7832871    1.2069242   -0.1196767    1.9029638   421400 
  566000    1.2690668  -0.12043623  -0.12043623    1.7831595    1.2066285  -0.12043623    1.9035957   421400 
  567000    1.2684801   -0.1203865   -0.1203865    1.7823292    1.2050527   -0.1203865    1.9027157   421400 
  568000    1.2658461  -0.11827492  -0.11827492    1.7804898    1.2087242  -0.11827492    1.8987647   421400 
  569000    1.2671975  -0.12045457  -0.12045457    1.7803372    1.2061058  -0.12045457    1.9007918   421400 
  570000    1.2660188  -0.12075811  -0.12075811    1.7782656    1.2036018  -0.12075811    1.8990237   421400 
  571000    1.2654368  -0.12042887  -0.12042887    1.7777218    1.2043374  -0.12042887    1.8981506   421400 
  572000    1.2662262  -0.12143254  -0.12143254    1.7779022    1.2022995  -0.12143254    1.8993347   421400 
  573000    1.2645704  -0.12100863  -0.12100863    1.7758424    1.2032953  -0.12100863     1.896851   421400 
  574000    1.2644575  -0.12138668  -0.12138668     1.775295    1.2001693  -0.12138668    1.8966817   421400 
  575000    1.2629119  -0.12070107  -0.12070107    1.7736623    1.2018849  -0.12070107    1.8943634   421400 
  576000     1.262649  -0.12086076  -0.12086076    1.7731083    1.2032656  -0.12086076     1.893969   421400 
  577000    1.2626804  -0.12200002  -0.12200002    1.7720161    1.1999941  -0.12200002    1.8940161   421400 
  578000    1.2606399  -0.12062848  -0.12062848    1.7703268    1.2026555  -0.12062848    1.8909553   421400 
  579000    1.2606726  -0.12155336  -0.12155336    1.7694511    1.2008358  -0.12155336    1.8910044   421400 
  580000    1.2610667  -0.12286268  -0.12286268     1.768733    1.1962894  -0.12286268    1.8915956   421400 
  581000    1.2607323  -0.12198211  -0.12198211    1.7691119    1.2011791  -0.12198211     1.891094   421400 
  582000    1.2603552  -0.12190561  -0.12190561    1.7686227    1.1973591  -0.12190561    1.8905283   421400 
  583000    1.2593774  -0.12120064  -0.12120064    1.7678609    1.2005277  -0.12120064    1.8890616   421400 
  584000    1.2602435  -0.12346436  -0.12346436    1.7668965    1.1958012  -0.12346436    1.8903608   421400 
  585000    1.2594689  -0.12281276  -0.12281276    1.7663861    1.1950482  -0.12281276    1.8891989   421400 
  586000    1.2575576  -0.12204888  -0.12204888    1.7642831    1.1974034  -0.12204888     1.886332   421400 
  587000    1.2578476  -0.12319916  -0.12319916    1.7635678    1.1938808  -0.12319916     1.886767   421400 
  588000    1.2560144  -0.12150796  -0.12150796    1.7625092    1.1969606  -0.12150796    1.8840172   421400 
  589000    1.2560372  -0.12267423  -0.12267423    1.7613771    1.1945404  -0.12267423    1.8840514   421400 
  590000    1.2561962  -0.12395171  -0.12395171    1.7603381    1.1904728  -0.12395171    1.8842898   421400 
  591000    1.2539871   -0.1219845   -0.1219845    1.7589917    1.1964348   -0.1219845    1.8809762   421400 
  592000    1.2538425  -0.12276714  -0.12276714    1.7579921    1.1939172  -0.12276714    1.8807592   421400 
  593000     1.253544  -0.12293035  -0.12293035    1.7573812    1.1924419  -0.12293035    1.8803116   421400 
  594000    1.2527614  -0.12194871  -0.12194871    1.7571889    1.1936422  -0.12194871    1.8791376   421400 
  595000    1.2523695  -0.12264387  -0.12264387     1.755906    1.1942992  -0.12264387    1.8785499   421400 
  596000    1.2530566  -0.12408355  -0.12408355    1.7554968    1.1899232  -0.12408355    1.8795804   421400 
  597000     1.251736  -0.12378342  -0.12378342    1.7538162    1.1890287  -0.12378342    1.8775996   421400 
  598000    1.2505331  -0.12289801  -0.12289801    1.7528972    1.1909408  -0.12289801    1.8757952   421400 
  599000    1.2507353  -0.12320246  -0.12320246    1.7528961    1.1915965  -0.12320246    1.8760986   421400 
  600000    1.2509918  -0.12407086  -0.12407086    1.7524124    1.1888419  -0.12407086    1.8764832   421400 
  601000     1.249913  -0.12314449  -0.12314449    1.7517206    1.1907436  -0.12314449    1.8748651   421400 
  602000    1.2500212   -0.1249142   -0.1249142    1.7501132    1.1854232   -0.1249142    1.8750274   421400 
  603000    1.2493866  -0.12462393  -0.12462393    1.7494515    1.1855706  -0.12462393    1.8740754   421400 
  604000    1.2483513  -0.12382108  -0.12382108    1.7487014    1.1879851  -0.12382108    1.8725225   421400 
  605000    1.2494148  -0.12497436  -0.12497436    1.7491434    1.1851952  -0.12497436    1.8741178   421400 
  606000    1.2476679  -0.12357033  -0.12357033     1.747927     1.188307  -0.12357033    1.8714973   421400 
  607000    1.2472672  -0.12434304  -0.12434304    1.7465534    1.1851251  -0.12434304    1.8708964   421400 
  608000    1.2464462  -0.12442431  -0.12442431    1.7452406     1.184987  -0.12442431    1.8696649   421400 
  609000    1.2469833  -0.12494658  -0.12494658    1.7455239    1.1854032  -0.12494658    1.8704705   421400 
  610000    1.2465021  -0.12509888  -0.12509888    1.7446498    1.1833855  -0.12509888    1.8697486   421400 
  611000    1.2447714   -0.1244544   -0.1244544    1.7426983    1.1839289   -0.1244544    1.8671527   421400 
  612000    1.2447959   -0.1255877   -0.1255877    1.7416018    1.1813303   -0.1255877    1.8671895   421400 
  613000    1.2443407  -0.12523995  -0.12523995    1.7412667     1.181556  -0.12523995    1.8665066   421400 
  614000    1.2437933  -0.12551705  -0.12551705    1.7401685    1.1820335  -0.12551705    1.8656855   421400 
  615000    1.2430731  -0.12454789  -0.12454789    1.7400573    1.1838091  -0.12454789    1.8646052   421400 
  616000    1.2428846  -0.12565767  -0.12565767    1.7386647    1.1800406  -0.12565767    1.8643224   421400 
  617000    1.2427167  -0.12600336  -0.12600336    1.7380672    1.1792979  -0.12600336    1.8640706   421400 
  618000    1.2422032  -0.12623282  -0.12623282    1.7370675    1.1795186  -0.12623282    1.8633003   421400 
  619000      1.24197  -0.12684759  -0.12684759     1.736103    1.1778214  -0.12684759    1.8629506   421400 
  620000    1.2415369  -0.12758226  -0.12758226    1.7347187    1.1754297  -0.12758226     1.862301   421400 
  621000    1.2403086  -0.12707126  -0.12707126    1.7333873     1.174897  -0.12707126    1.8604585   421400 
  622000    1.2389448  -0.12571768  -0.12571768    1.7326952    1.1790714  -0.12571768    1.8584128   421400 
  623000    1.2383558  -0.12571621  -0.12571621    1.7318131    1.1793665  -0.12571621    1.8575293   421400 
  624000    1.2385318  -0.12694794  -0.12694794    1.7308454    1.1755598  -0.12694794    1.8577934   421400 
  625000    1.2387569  -0.12674444  -0.12674444    1.7313864     1.176943  -0.12674444    1.8581309   421400 
  626000    1.2376365  -0.12751016  -0.12751016    1.7289402    1.1727135  -0.12751016    1.8564503   421400 
  627000    1.2372265  -0.12771016  -0.12771016    1.7281252    1.1719234  -0.12771016    1.8558353   421400 
  628000    1.2356727  -0.12627234  -0.12627234    1.7272323    1.1766294  -0.12627234    1.8535047   421400 
  629000    1.2360192  -0.12689139  -0.12689139     1.727133    1.1738134  -0.12689139    1.8540244   421400 
  630000    1.2357284  -0.12748145  -0.12748145    1.7261067    1.1723672  -0.12748145    1.8535882   421400 
  631000    1.2336618  -0.12603171  -0.12603171    1.7244566    1.1777721  -0.12603171    1.8504883   421400 
  632000    1.2350289  -0.12765589  -0.12765589    1.7248831    1.1723283  -0.12765589     1.852539   421400 
  633000     1.233474  -0.12615139  -0.12615139    1.7240552    1.1739404  -0.12615139    1.8502066   421400 
  634000    1.2332563  -0.12707785  -0.12707785    1.7228022    1.1715063  -0.12707785      1.84988   421400 
  635000    1.2318545  -0.12623445  -0.12623445     1.721543    1.1738335  -0.12623445    1.8477774   421400 
  636000    1.2318908  -0.12620579  -0.12620579    1.7216261    1.1739065  -0.12620579    1.8478319   421400 
  637000    1.2322959  -0.12714074  -0.12714074    1.7212987    1.1724332  -0.12714074    1.8484394   421400 
  638000    1.2318854  -0.12786674  -0.12786674     1.719957    1.1697567  -0.12786674    1.8478237   421400 
  639000    1.2318727  -0.12861524  -0.12861524    1.7191895    1.1681109  -0.12861524    1.8478047   421400 
  640000    1.2304743  -0.12769484  -0.12769484    1.7180123     1.169059  -0.12769484    1.8457071   421400 
  641000    1.2297246  -0.12808828  -0.12808828    1.7164942    1.1685465  -0.12808828    1.8445825   421400 
  642000    1.2289697  -0.12704031  -0.12704031    1.7164099    1.1709231  -0.12704031    1.8434502   421400 
  643000    1.2281036  -0.12727385  -0.12727385    1.7148772    1.1713924  -0.12727385     1.842151   421400 
  644000    1.2277909   -0.1276987   -0.1276987    1.7139833    1.1693188   -0.1276987     1.841682   421400 
  645000    1.2286929  -0.12868303  -0.12868303    1.7143519    1.1662723  -0.12868303     1.843035   421400 
  646000    1.2276158  -0.12827816  -0.12827816    1.7131412      1.16789  -0.12827816    1.8414193   421400 
  647000    1.2261657  -0.12835868  -0.12835868    1.7108855    1.1658555  -0.12835868    1.8392442   421400 
  648000    1.2269106  -0.12922392  -0.12922392    1.7111377    1.1640659  -0.12922392    1.8403616   421400 
  649000    1.2260881  -0.12845607  -0.12845607    1.7106717    1.1663939  -0.12845607    1.8391278   421400 
  650000    1.2263179  -0.12987164  -0.12987164    1.7096009    1.1620705  -0.12987164    1.8394725   421400 
  651000    1.2241839  -0.12840635  -0.12840635    1.7078651    1.1655235  -0.12840635    1.8362714   421400 
  652000    1.2242816  -0.13005389  -0.13005389    1.7063642    1.1614131  -0.13005389    1.8364181   421400 
  653000    1.2234263  -0.12888114  -0.12888114    1.7062539    1.1637087  -0.12888114    1.8351351   421400 
  654000    1.2238589  -0.12943397  -0.12943397      1.70635    1.1638215  -0.12943397     1.835784   421400 
  655000    1.2231989  -0.12954356  -0.12954356    1.7052504    1.1612267  -0.12954356     1.834794   421400 
  656000    1.2223759  -0.12981844  -0.12981844     1.703741    1.1607885  -0.12981844    1.8335595   421400 
  657000    1.2214713  -0.12883265  -0.12883265    1.7033699    1.1617783  -0.12883265    1.8322025   421400 
  658000    1.2214624  -0.13011252  -0.13011252    1.7020767    1.1598996  -0.13011252    1.8321892   421400 
  659000    1.2201366  -0.12858615  -0.12858615    1.7016144    1.1619703  -0.12858615    1.8302006   421400 
  660000    1.2200661  -0.12914313  -0.12914313    1.7009517    1.1623633  -0.12914313    1.8300948   421400 
  661000    1.2195674  -0.13086421  -0.13086421    1.6984825    1.1574226  -0.13086421    1.8293467   421400 
  662000     1.218206  -0.12989898  -0.12989898    1.6974057    1.1597312  -0.12989898    1.8273047   421400 
  663000    1.2174629  -0.12966002  -0.12966002      1.69653    1.1577336  -0.12966002      1.82619   421400 
  664000    1.2179422  -0.13120819  -0.13120819    1.6957008    1.1555715  -0.13120819     1.826909   421400 
  665000    1.2178423   -0.1316183   -0.1316183    1.6951408    1.1543194   -0.1316183    1.8267591   421400 
  666000     1.216874  -0.12924906  -0.12924906    1.6960576    1.1585572  -0.12924906    1.8253067   421400 
  667000    1.2169184   -0.1304927   -0.1304927    1.6948805    1.1570096   -0.1304927    1.8253732   421400 
  668000    1.2162559  -0.12951346  -0.12951346     1.694866    1.1595862  -0.12951346    1.8243795   421400 
  669000    1.2162499  -0.13086862  -0.13086862    1.6935018    1.1554086  -0.13086862    1.8243705   421400 
  670000    1.2157264  -0.13156043  -0.13156043    1.6920249    1.1533454  -0.13156043    1.8235853   421400 
  671000    1.2142879  -0.13023215  -0.13023215    1.6911953     1.157142  -0.13023215    1.8214275   421400 
  672000    1.2138762  -0.13062195  -0.13062195     1.690188    1.1541773  -0.13062195      1.82081   421400 
  673000    1.2136112  -0.13083115  -0.13083115    1.6895813     1.155753  -0.13083115    1.8204124   421400 
  674000    1.2125001  -0.13114093  -0.13114093    1.6876049    1.1518513  -0.13114093    1.8187458   421400 
  675000    1.2117166  -0.13020465  -0.13020465     1.687366     1.155565  -0.13020465    1.8175706   421400 
  676000    1.2131019   -0.1327557   -0.1327557    1.6868929     1.149677   -0.1327557    1.8196486   421400 
  677000    1.2121783  -0.13257942  -0.13257942    1.6856837    1.1488227  -0.13257942    1.8182631   421400 
  678000    1.2101136  -0.13139076  -0.13139076    1.6837753     1.151229  -0.13139076     1.815166   421400 
  679000    1.2091395   -0.1308341   -0.1308341    1.6828708    1.1512515   -0.1308341    1.8137049   421400 
  680000    1.2104359  -0.13258943  -0.13258943    1.6830601    1.1483699  -0.13258943    1.8156495   421400 
  681000    1.2086262  -0.13132634  -0.13132634    1.6816086    1.1503116  -0.13132634    1.8129349   421400 
  682000    1.2093256  -0.13270612  -0.13270612    1.6812779    1.1473093  -0.13270612     1.813984   421400 
[...]
23832000  0.051740206   -1.2152707   -1.2152707   -1.0525953 -0.032594549   -1.2152707   0.16267537   201044 
23833000  0.051912254   -1.2158885   -1.2158885   -1.0526633 -0.033746469   -1.2158885   0.16322523   201033 
23834000  0.051926613   -1.2161586   -1.2161586   -1.0528793 -0.032778457   -1.2161586   0.16327932   201022 
23835000   0.05177493   -1.2161752   -1.2161752   -1.0533639 -0.031707803   -1.2161752   0.16281127   201011 
23836000   0.05185178   -1.2165421   -1.2165421   -1.0534802 -0.033512181   -1.2165421   0.16306185   201000 
23837000  0.051908646     -1.21737     -1.21737   -1.0541204 -0.033854902     -1.21737   0.16324962   200989 
23838000  0.051725261   -1.2177135   -1.2177135   -1.0550317 -0.033316033   -1.2177135   0.16268179   200978 
23839000  0.051761045   -1.2181996   -1.2181996   -1.0553964  -0.03240867   -1.2181996   0.16280324   200967 
23840000  0.051681005   -1.2182062   -1.2182062   -1.0556458 -0.033362073   -1.2182062   0.16256039   200956 
23841000  0.051657844   -1.2182551   -1.2182551   -1.0557578 -0.033954399   -1.2182551   0.16249724   200944 
23842000  0.051612178   -1.2187477   -1.2187477   -1.0563853 -0.033732835   -1.2187477   0.16236248   200933 
23843000  0.051700335   -1.2193387   -1.2193387   -1.0566899  -0.03192307   -1.2193387   0.16264871   200922 
23844000  0.051769195   -1.2196753   -1.2196753    -1.056801 -0.033433927   -1.2196753   0.16287426   200911 
23845000  0.051654739     -1.21993     -1.21993    -1.057407 -0.034925819     -1.21993   0.16252306   200900 
23846000  0.051645997   -1.2200758   -1.2200758   -1.0575713 -0.033771692   -1.2200758   0.16250445   200889 
23847000  0.051624052   -1.2206608   -1.2206608   -1.0582165 -0.033602905   -1.2206608    0.1624443   200878 
23848000  0.051536917   -1.2202459   -1.2202459   -1.0580669  -0.03271457   -1.2202459     0.162179   200867 
23849000  0.051523165   -1.2209969   -1.2209969   -1.0588523 -0.033576096   -1.2209969    0.1621446   200856 
23850000   0.05143436   -1.2213853   -1.2213853   -1.0595105 -0.034628693   -1.2213853    0.1618748   200844 
23851000  0.051445197   -1.2219016   -1.2219016   -1.0599839 -0.032876938   -1.2219016   0.16191777   200833 
23852000  0.051452897   -1.2226012   -1.2226012   -1.0606503 -0.033886638   -1.2226012   0.16195088   200822 
23853000  0.051377487   -1.2224052   -1.2224052   -1.0606828 -0.034333719   -1.2224052   0.16172238   200811 
23854000  0.051410672   -1.2224954   -1.2224954   -1.0606597 -0.034113372   -1.2224954    0.1618357   200800 
23855000  0.051454978   -1.2228637   -1.2228637   -1.0608796 -0.033257816   -1.2228637   0.16198404   200789 
23856000  0.051643361   -1.2237269   -1.2237269   -1.0611409 -0.034321339   -1.2237269     0.162586   200778 
23857000  0.051397022   -1.2231436   -1.2231436   -1.0613242 -0.034282808   -1.2231436   0.16181932   200767 
23858000  0.051382782   -1.2240772   -1.2240772   -1.0622938 -0.035201739   -1.2240772   0.16178335   200756 
23859000  0.051224585   -1.2240816   -1.2240816   -1.0627867 -0.034021971   -1.2240816    0.1612949   200744 
23860000  0.051370836    -1.224736    -1.224736   -1.0629718 -0.032948104    -1.224736   0.16176428   200733 
23861000  0.051132421   -1.2247995   -1.2247995   -1.0637771  -0.03403537   -1.2247995   0.16102234   200722 
23862000  0.051125073   -1.2252417   -1.2252417   -1.0642336 -0.034562881   -1.2252417   0.16100803   200711 
23863000  0.051188017   -1.2259236   -1.2259236   -1.0647085 -0.034376349   -1.2259236   0.16121509   200700 
23864000   0.05113896   -1.2262413   -1.2262413   -1.0651719 -0.034494503   -1.2262413   0.16106942   200689 
23865000  0.051036684   -1.2263281   -1.2263281    -1.065572 -0.035066215   -1.2263281   0.16075609   200678 
23866000  0.050949257   -1.2267624   -1.2267624   -1.0662729 -0.035745195   -1.2267624   0.16048951   200667 
23867000  0.050919669   -1.2269514   -1.2269514   -1.0665463 -0.033922145   -1.2269514    0.1604051   200656 
23868000  0.051004996   -1.2277092   -1.2277092   -1.0670257 -0.033381774   -1.2277092   0.16068351   200644 
23869000  0.050959063   -1.2281371   -1.2281371   -1.0675895 -0.034320871   -1.2281371    0.1605476   200633 
23870000  0.050825631   -1.2276024   -1.2276024   -1.0674664  -0.03576202   -1.2276024     0.160136   200622 
23871000  0.050885919   -1.2280124   -1.2280124   -1.0676777  -0.03431516   -1.2280124   0.16033474   200611 
23872000  0.050991679   -1.2287739   -1.2287739   -1.0680971 -0.034704951   -1.2287739   0.16067679   200600 
23873000  0.050842771   -1.2291434   -1.2291434    -1.068927 -0.034032266   -1.2291434   0.16021636   200589 
23874000  0.050818222   -1.2288697   -1.2288697   -1.0687219 -0.034123156   -1.2288697   0.16014778   200578 
23875000  0.050806376   -1.2292624   -1.2292624   -1.0691432 -0.035355426   -1.2292624   0.16011923   200567 
23876000  0.050783731   -1.2297161   -1.2297161   -1.0696595 -0.035151611   -1.2297161   0.16005664   200556 
23877000  0.050804281   -1.2303742   -1.2303742   -1.0702432 -0.033993085   -1.2303742   0.16013099   200544 
23878000  0.050706117   -1.2307902   -1.2307902   -1.0709598 -0.035138155   -1.2307902   0.15983035   200533 
23879000  0.050554131   -1.2308964   -1.2308964   -1.0715364 -0.034424378   -1.2308964   0.15936002   200522 
23880000  0.050627473   -1.2318488   -1.2318488   -1.0722488 -0.035955188   -1.2318488   0.15959997   200511 
23881000  0.050584271   -1.2324397   -1.2324397   -1.0729672 -0.036546673   -1.2324397   0.15947253   200500 
23882000  0.050569247   -1.2328232   -1.2328232   -1.0733893 -0.035686077   -1.2328232   0.15943391   200489 
23883000  0.050559164     -1.23307     -1.23307   -1.0736591 -0.035512958     -1.23307   0.15941087   200478 
23884000  0.050406167   -1.2331342   -1.2331342    -1.074197 -0.035811409   -1.2331342   0.15893719   200467 
23885000  0.050363026    -1.232861    -1.232861   -1.0740511 -0.035817197    -1.232861   0.15880988   200456 
23886000  0.050365306   -1.2336554   -1.2336554   -1.0748288 -0.035717992   -1.2336554   0.15882658   200444 
23887000  0.050298203   -1.2337368   -1.2337368   -1.0751131 -0.034542892   -1.2337368   0.15862367   200433 
23888000   0.05021677   -1.2339906   -1.2339906   -1.0756151 -0.035810006   -1.2339906   0.15837555   200422 
23889000  0.050332478   -1.2343328   -1.2343328   -1.0755836 -0.036464278   -1.2343328   0.15874919   200411 
23890000   0.05036991   -1.2349622   -1.2349622   -1.0760862 -0.035950479   -1.2349622   0.15887597   200400 
23891000  0.050342495   -1.2354354   -1.2354354   -1.0766371 -0.034596523   -1.2354354   0.15879822   200389 
23892000   0.05022465   -1.2357643   -1.2357643   -1.0773292 -0.036244092   -1.2357643   0.15843519   200378 
23893000  0.050111537   -1.2355446   -1.2355446   -1.0774576 -0.036635559   -1.2355446   0.15808705   200367 
23894000  0.049998915   -1.2356252   -1.2356252   -1.0778848 -0.035663505   -1.2356252   0.15774042   200356 
23895000  0.050160455   -1.2363063   -1.2363063   -1.0780468 -0.034796478   -1.2363063   0.15825953   200344 
23896000  0.050264092    -1.236712    -1.236712   -1.0781168 -0.035503003    -1.236712   0.15859522   200333 
23897000  0.050096614   -1.2363445   -1.2363445    -1.078269 -0.035909967   -1.2363445   0.15807547   200322 
23898000   0.05011715   -1.2369304   -1.2369304   -1.0787815 -0.036718493   -1.2369304   0.15814896   200311 
23899000  0.050235042   -1.2376898   -1.2376898   -1.0791602 -0.036894199   -1.2376898   0.15852968   200300 
23900000  0.050113618   -1.2380718   -1.2380718   -1.0799166 -0.036653089   -1.2380718   0.15815518   200289 
23901000   0.04992101   -1.2382304   -1.2382304   -1.0806745  -0.03635227   -1.2382304   0.15755597   200278 
23902000  0.049885038   -1.2381812   -1.2381812   -1.0807301 -0.036779764   -1.2381812   0.15745109   200267 
23903000  0.049846576   -1.2383978   -1.2383978   -1.0810594 -0.036162228   -1.2383978   0.15733834   200256 
23904000  0.049955288   -1.2390228   -1.2390228   -1.0813319 -0.036062504   -1.2390228   0.15769093   200244 
23905000  0.049907101   -1.2394039   -1.2394039   -1.0818565 -0.037191513   -1.2394039   0.15754747   200233 
23906000  0.049766715    -1.239366    -1.239366   -1.0822531 -0.037314123    -1.239366   0.15711293   200222 
23907000  0.049939965   -1.2400992   -1.2400992   -1.0824307 -0.036399533   -1.2400992   0.15766855   200211 
23908000  0.049717666   -1.2398559   -1.2398559   -1.0828806 -0.035595392   -1.2398559   0.15697533   200200 
23909000  0.049841395   -1.2407579   -1.2407579   -1.0833832 -0.036845692   -1.2407579   0.15737464   200189 
23910000  0.049765332   -1.2407003   -1.2407003   -1.0835572 -0.037518928   -1.2407003    0.1571431   200178 
23911000  0.049760847   -1.2410529   -1.2410529   -1.0839153 -0.037647561   -1.2410529   0.15713758   200167 
23912000  0.049755987   -1.2411497   -1.2411497   -1.0840188 -0.036089957   -1.2411497   0.15713086   200156 
23913000  0.049827826   -1.2417166   -1.2417166   -1.0843494 -0.036305665   -1.2417166   0.15736716   200144 
23914000  0.049759397   -1.2419045   -1.2419045   -1.0847449 -0.036687349   -1.2419045   0.15715969   200133 
23915000  0.049774788   -1.2424122   -1.2424122   -1.0851953  -0.03794679   -1.2424122   0.15721694   200122 
23916000  0.049570787   -1.2419861   -1.2419861   -1.0854049 -0.037039632   -1.2419861    0.1565812   200111 
23917000  0.049675462   -1.2428093   -1.2428093   -1.0858889 -0.037716055   -1.2428093   0.15692046   200100 
23918000  0.049604259    -1.243286    -1.243286   -1.0865818 -0.037182691    -1.243286   0.15670416   200089 
23919000  0.049656718   -1.2437636   -1.2437636   -1.0868851 -0.037462999   -1.2437636    0.1568785   200078 
23920000  0.049528484   -1.2437792   -1.2437792   -1.0872972 -0.037514357   -1.2437792   0.15648198   200067 
23921000  0.049588267   -1.2440222   -1.2440222   -1.0873428 -0.037293124   -1.2440222   0.15667948   200056 
23922000  0.049547098   -1.2440232   -1.2440232   -1.0874644  -0.03645275   -1.2440232   0.15655879   200044 
23923000  0.049616263    -1.244552    -1.244552    -1.087766 -0.036258863    -1.244552   0.15678596   200033 
23924000  0.049506212   -1.2446263   -1.2446263   -1.0881795 -0.037645506   -1.2446263    0.1564468   200022 
23925000  0.049510962   -1.2451969   -1.2451969   -1.0887265 -0.038810375   -1.2451969   0.15647042   200011 
23926000  0.049476224   -1.2454267   -1.2454267   -1.0890575 -0.037711883   -1.2454267   0.15636923   200000 
23927000  0.049396108   -1.2456665   -1.2456665   -1.0895419 -0.037229917   -1.2456665   0.15612462   199989 
23928000  0.049335635   -1.2460091   -1.2460091    -1.090067 -0.037489762   -1.2460091   0.15594206   199978 
23929000  0.049312423   -1.2460955   -1.2460955   -1.0902182 -0.038903452   -1.2460955   0.15587726   199967 
23930000  0.049332606   -1.2463529   -1.2463529   -1.0904033 -0.037537513   -1.2463529   0.15594964   199956 
23931000  0.049268433   -1.2463499   -1.2463499   -1.0905938 -0.036657583   -1.2463499   0.15575612   199944 
23932000  0.049374816   -1.2470611   -1.2470611   -1.0909601  -0.03650463   -1.2470611   0.15610103   199933 
23933000  0.049219292   -1.2476441   -1.2476441   -1.0920262 -0.038472747   -1.2476441   0.15561789   199922 
23934000  0.049138527   -1.2475249   -1.2475249   -1.0921538 -0.038249793   -1.2475249   0.15537109   199911 
23935000  0.049179186   -1.2477128   -1.2477128   -1.0922046  -0.03673804   -1.2477128    0.1555082   199900 
23936000  0.049314478   -1.2486151   -1.2486151   -1.0926706 -0.038172531   -1.2486151   0.15594459   199889 
23937000  0.049222195   -1.2486841   -1.2486841   -1.0930228 -0.037843158   -1.2486841   0.15566133   199878 
23938000  0.049005652   -1.2485023   -1.2485023   -1.0935172 -0.037987411   -1.2485023   0.15498506   199867 
23939000  0.048986002   -1.2489053   -1.2489053   -1.0939739 -0.039188339   -1.2489053   0.15493144   199856 
23940000  0.049014252   -1.2489036   -1.2489036   -1.0938735 -0.038366264   -1.2489036    0.1550301   199844 
23941000  0.049179463   -1.2498939   -1.2498939   -1.0943327  -0.03743975   -1.2498939   0.15556122   199833 
23942000  0.049164141   -1.2504916   -1.2504916   -1.0949702 -0.038770846   -1.2504916   0.15552131   199822 
23943000  0.048993615   -1.2505013   -1.2505013   -1.0955109 -0.039375954   -1.2505013   0.15499042   199811 
23944000  0.049007867   -1.2507182   -1.2507182   -1.0956742 -0.038497578   -1.2507182   0.15504404   199800 
23945000  0.048945738   -1.2508447   -1.2508447   -1.0959887 -0.038011973   -1.2508447   0.15485601   199789 
23946000  0.048891433   -1.2506302   -1.2506302   -1.0959375 -0.038362286   -1.2506302   0.15469272   199778 
23947000  0.048776345   -1.2505773   -1.2505773   -1.0962402 -0.038614214   -1.2505773   0.15433708   199767 
23948000  0.048856288   -1.2513123   -1.2513123   -1.0967138 -0.038952993   -1.2513123   0.15459854   199756 
23949000  0.048826562   -1.2515688   -1.2515688   -1.0970551 -0.038407687   -1.2515688   0.15451376   199744 
23950000  0.048688732   -1.2517317   -1.2517317   -1.0976456 -0.037917459   -1.2517317   0.15408608   199733 
23951000  0.048836698   -1.2525052   -1.2525052   -1.0979423 -0.039238857   -1.2525052   0.15456286   199722 
23952000  0.048769429   -1.2524198   -1.2524198   -1.0980613 -0.038160416   -1.2524198   0.15435846   199711 
23953000  0.048730669   -1.2527959   -1.2527959   -1.0985516  -0.03841832   -1.2527959   0.15424428   199700 
23954000  0.048731574    -1.253381    -1.253381   -1.0991254 -0.039595559    -1.253381   0.15425564   199689 
23955000  0.048711312   -1.2535709   -1.2535709    -1.099371 -0.039436806   -1.2535709       0.1542   199678 
23956000  0.048576647   -1.2538815   -1.2538815   -1.1000993 -0.038590119   -1.2538815   0.15378218   199667 
23957000  0.048635358   -1.2541583   -1.2541583   -1.1001818 -0.039262951   -1.2541583   0.15397652   199656 
23958000   0.04864179   -1.2544666   -1.2544666   -1.1004605 -0.039755011   -1.2544666   0.15400614   199644 
23959000  0.048583555   -1.2549652   -1.2549652    -1.101135 -0.039388839   -1.2549652   0.15383024   199633 
23960000  0.048586164    -1.255412    -1.255412    -1.101565  -0.03885473    -1.255412   0.15384698   199622 
23961000  0.048425748   -1.2551322   -1.2551322   -1.1017848 -0.038795466   -1.2551322   0.15334747   199611 
23962000  0.048594843   -1.2556165   -1.2556165    -1.101725 -0.039249494   -1.2556165   0.15389142   199600 
23963000   0.04844703   -1.2556455   -1.2556455   -1.1022137 -0.039225784   -1.2556455   0.15343178   199589 
23964000  0.048454221   -1.2559334   -1.2559334   -1.1024704 -0.039483785   -1.2559334   0.15346301   199578 
23965000  0.048349852   -1.2563988   -1.2563988   -1.1032579 -0.039078924   -1.2563988    0.1531409   199567 
23966000  0.048248585   -1.2565482   -1.2565482   -1.1037197 -0.039557196   -1.2565482   0.15282857   199556 
23967000  0.048394863   -1.2571119   -1.2571119   -1.1038108 -0.038922573   -1.2571119   0.15330113   199544 
23968000  0.048280501    -1.257188    -1.257188   -1.1042407 -0.039373137    -1.257188   0.15294729   199533 
23969000  0.048365568   -1.2574217   -1.2574217   -1.1041965 -0.039307854   -1.2574217   0.15322522   199522 
23970000  0.048400692    -1.257684    -1.257684   -1.1043391 -0.039422802    -1.257684   0.15334495   199511 
23971000  0.048293913   -1.2576131   -1.2576131    -1.104598 -0.039083164   -1.2576131   0.15301509   199500 
23972000  0.048216918   -1.2573904   -1.2573904   -1.1046109 -0.038549268   -1.2573904   0.15277956   199489 
23973000  0.048130773   -1.2578019   -1.2578019   -1.1052869 -0.038668597   -1.2578019   0.15251501   199478 
23974000  0.048254409   -1.2588393   -1.2588393   -1.1059241 -0.039580488   -1.2588393   0.15291522   199467 
23975000  0.048394689   -1.2590609   -1.2590609   -1.1056927 -0.038894975   -1.2590609   0.15336821   199456 
23976000  0.048255322   -1.2588837   -1.2588837    -1.105948  -0.03970616   -1.2588837   0.15293574   199444 
23977000  0.048131753   -1.2587194   -1.2587194   -1.1061669 -0.040008073   -1.2587194   0.15255253   199433 
23978000  0.048199389   -1.2593742   -1.2593742   -1.1065988 -0.039664499   -1.2593742   0.15277533   199422 
23979000  0.048169045   -1.2598596   -1.2598596    -1.107172 -0.039422204   -1.2598596   0.15268757   199411 
23980000   0.04812873    -1.260286    -1.260286   -1.1077178 -0.039970879    -1.260286    0.1525682   199400 
23981000   0.04807886   -1.2604369   -1.2604369   -1.1080184 -0.041264758   -1.2604369   0.15241852   199389 
23982000  0.048113435     -1.26025     -1.26025   -1.1077134 -0.040089015     -1.26025   0.15253654   199378 
23983000  0.048050326   -1.2604566   -1.2604566   -1.1081117  -0.03931432   -1.2604566   0.15234487   199367 
23984000  0.048073156   -1.2609017   -1.2609017    -1.108476 -0.040357588   -1.2609017   0.15242566   199356 
23985000  0.048018263   -1.2612578   -1.2612578    -1.108997 -0.039925694   -1.2612578   0.15226078   199344 
23986000  0.047983925   -1.2615952   -1.2615952    -1.109435 -0.039432644   -1.2615952   0.15216029   199333 
23987000  0.047815673   -1.2614105   -1.2614105   -1.1097754 -0.040128249   -1.2614105   0.15163512   199322 
23988000  0.047950686   -1.2621419   -1.2621419   -1.1100702  -0.04013756   -1.2621419   0.15207167   199311 
23989000  0.047966355   -1.2623628   -1.2623628   -1.1102331 -0.040067905   -1.2623628   0.15212976   199300 
23990000   0.04798346   -1.2625715   -1.2625715   -1.1103791 -0.040020208   -1.2625715   0.15219241   199289 
23991000  0.047883145    -1.262729    -1.262729   -1.1108464 -0.040975148    -1.262729   0.15188262   199278 
23992000  0.047937496   -1.2630038   -1.2630038   -1.1109404 -0.040713069   -1.2630038   0.15206341   199267 
23993000  0.047812129   -1.2629504   -1.2629504   -1.1112763 -0.040041046   -1.2629504    0.1516741   199256 
23994000  0.047831891   -1.2634517   -1.2634517   -1.1117058 -0.040331974   -1.2634517   0.15174593   199244 
23995000  0.047785197   -1.2638347   -1.2638347   -1.1122285 -0.040623259   -1.2638347   0.15160617   199233 
23996000  0.047582609   -1.2637957   -1.2637957    -1.112824 -0.040604855   -1.2637957   0.15097176   199222 
23997000  0.047674143   -1.2639905   -1.2639905     -1.11272 -0.040320789   -1.2639905   0.15127053   199211 
23998000  0.047717425      -1.2643      -1.2643   -1.1128838  -0.03902835      -1.2643   0.15141623   199200 
23999000  0.047552079   -1.2642386   -1.2642386   -1.1133387 -0.040822033   -1.2642386   0.15089989   199189 
24000000  0.047665064   -1.2646924   -1.2646924   -1.1134256 -0.041796178   -1.2646924   0.15126678   199178 
Loop time of 10014.9 on 192 procs for 20000000 steps with 199178 atoms

Performance: 862716.553 tau/day, 1997.029 timesteps/s
82.0% CPU use with 192 MPI tasks x 1 OpenMP threads

MPI task timing breakdown:
Section |  min time  |  avg time  |  max time  |%varavg|  %CPU | %total
-----------------------------------------------------------------------
Pair    | 1696.1     | 2124.2     | 2514.3     | 465.9 |  85.6 | 21.21
Bond    | 12.551     | 13.067     | 13.586     |   5.6 |  93.8 |  0.13
Neigh   | 1352.3     | 1597.6     | 1796.3     | 298.3 |  91.3 | 15.95
Comm    | 2401.2     | 3795.8     | 4305.4     | 837.2 |  81.3 | 37.90
Output  | 1087       | 1091       | 1091.1     |   0.9 |  65.5 | 10.89
Modify  | 601.55     | 827.47     | 1949.6     |1444.5 |  83.5 |  8.26
Other   |            | 565.7      |            |       |       |  5.65

Nlocal:        1037.39 ave        1258 max         689 min
Histogram: 3 3 4 9 21 32 68 30 15 7
Nghost:        1722.40 ave        2012 max        1054 min
Histogram: 11 31 6 0 0 0 0 6 85 53
Neighs:        9229.93 ave       11707 max        3871 min
Histogram: 6 4 5 5 4 12 32 76 35 13

Total # of neighbors = 1772146
Ave neighs/atom = 8.8972979
Ave special neighs/atom = 0.0000000
Neighbor list builds = 1872011
Dangerous builds = 1163909
Total wall time: 3:33:23
