LAMMPS (24 Dec 2020)
OMP_NUM_THREADS environment is not set. Defaulting to 1 thread. (src/comm.cpp:94)
  using 1 OpenMP thread(s) per MPI task
#Read the equilibrated lj fluid and add nanocubes

units           lj
atom_style      full
atom_modify     map array first cubes
dimension       3
boundary        p p f
pair_style      lj/cut/opt 2.5

variable        sigma           equal 1.0
variable        epsilon         equal 1.0
read_restart	restart.dat.3000000
Reading restart file ...
  restart file = 24 Dec 2020, LAMMPS = 24 Dec 2020
WARNING: Restart file used different # of processors: 48 vs. 288 (src/read_restart.cpp:697)
  restoring atom style full from restart
  orthogonal box = (0.0000000 0.0000000 0.0000000) to (80.000000 80.000000 160.00000)
  6 by 4 by 12 MPI processor grid
  restoring pair style lj/cut/opt from restart
  518400 atoms
Finding 1-2 1-3 1-4 neighbors ...
  special bond factors lj:    0        0        0       
  special bond factors coul:  0        0        0       
     0 = max # of 1-2 neighbors
     0 = max # of 1-3 neighbors
     0 = max # of 1-4 neighbors
     1 = max # of special neighbors
  special bonds CPU = 2.407 seconds
  read_restart CPU = 2.761 seconds

group		solvent type 1
518400 atoms in group solvent

read_data	data_125.cubes group cubes add append
Reading data file ...
  orthogonal box = (0.0000000 0.0000000 0.0000000) to (80.000000 80.000000 160.00000)
  6 by 4 by 12 MPI processor grid
  reading atoms ...
  142875 atoms
  reading velocities ...
  142875 velocities
Finding 1-2 1-3 1-4 neighbors ...
  special bond factors lj:    0        0        0       
  special bond factors coul:  0        0        0       
     0 = max # of 1-2 neighbors
     0 = max # of 1-3 neighbors
     0 = max # of 1-4 neighbors
     1 = max # of special neighbors
  special bonds CPU = 0.064 seconds
  read_data CPU = 0.482 seconds

group 		hull  type 2
55750 atoms in group hull
group 		dummy type 3
87125 atoms in group dummy

neighbor      0.4 bin
neigh_modify  exclude molecule/intra cubes


pair_modify   shift yes

pair_coeff    1 1 1.0 1.0 #solvent
pair_coeff    2 2 1.0 1.0 1.12 #np
pair_coeff    3 3 0.0 0.0 0.0 #dummy
pair_coeff    2 3 0.0 0.0 0.0 #np dummy
pair_coeff    1 2 ${eps} ${sig} ${nscut} #np solvent
pair_coeff    1 2 5.0 ${sig} ${nscut} 
pair_coeff    1 2 5.0 2.0 ${nscut} 
pair_coeff    1 2 5.0 2.0 4.0 
pair_coeff    1 3 0.0 0.0 2.5 #dummy solvent

# delete solvent where the cubes are
delete_atoms  overlap 2.0 solvent cubes
System init for delete_atoms ...
Neighbor list info ...
  update every 1 steps, delay 10 steps, check yes
  max neighbors/atom: 2000, page size: 100000
  master list distance cutoff = 4.4
  ghost atom cutoff = 4.4
  binsize = 2.2, bins = 37 37 73
  2 neighbor lists, perpetual/occasional/extra = 1 1 0
  (1) command delete_atoms, occasional
      attributes: full, newton on
      pair build: full/bin
      stencil: full/bin/3d
      bin: standard
  (2) pair lj/cut/opt, perpetual
      attributes: half, newton on
      pair build: half/bin/newton
      stencil: half/bin/3d/newton
      bin: standard
WARNING: Delete_atoms cutoff > minimum neighbor cutoff (src/delete_atoms.cpp:307)
WARNING: Ignoring 'compress yes' for molecular system (src/delete_atoms.cpp:125)
Deleted 140737 atoms, new total = 520538



pair_coeff    1 1 1.0 1.0 #solvent
pair_coeff    2 2 1.0 1.0 1.12 #np
pair_coeff    3 3 0.0 0.0 0.0 #dummy
pair_coeff    2 3 0.0 0.0 0.0 #np dummy
pair_coeff    1 2 ${eps} ${sig} ${nscut} #np solvent
pair_coeff    1 2 5.0 ${sig} ${nscut} 
pair_coeff    1 2 5.0 2.0 ${nscut} 
pair_coeff    1 2 5.0 2.0 4.0 
pair_coeff    1 3 0.0 0.0 0.0 #dummy solvent


comm_modify   mode multi cutoff/multi 1 2.5 cutoff/multi 2 2.5 cutoff/multi 3 6.95

reset_timestep 	0

balance 	1.05 shift z 10 1.05
Balancing ...
Neighbor list info ...
  update every 1 steps, delay 10 steps, check yes
  max neighbors/atom: 2000, page size: 100000
  master list distance cutoff = 4.4
  ghost atom cutoff = 6.95
  binsize = 2.2, bins = 37 37 73
  1 neighbor lists, perpetual/occasional/extra = 1 0 0
  (1) pair lj/cut/opt, perpetual
      attributes: half, newton on
      pair build: half/bin/newton
      stencil: half/bin/3d/newton
      bin: standard
 rebalancing time: 0.005 seconds
  iteration count = 4
  initial/final maximal load/proc = 2180.0000 2306.0000
  initial/final imbalance factor  = 1.2061367 1.2758492
  x cuts: 0.0000000 0.16666667 0.33333333 0.50000000 0.66666667 0.83333333 1.0000000
  y cuts: 0.0000000 0.25000000 0.50000000 0.75000000 1.0000000
  z cuts: 0.0000000 0.078125000 0.16145833 0.25520833 0.34895833 0.42187500 0.49479167 0.57812500 0.65104167 0.72395833 0.78645833 0.85937500 1.0000000

####################### WALLS ###########################

variable       epsilonWall equal 2*${epsilon}
variable       epsilonWall equal 2*1
variable       repulsive   equal   0.7147*${sigma}
variable       repulsive   equal   0.7147*1
variable       full	   equal   3*${sigma}
variable       full	   equal   3*1
region         lowWall block EDGE EDGE EDGE EDGE EDGE 2

fix            topWall all wall/lj93 zhi EDGE 	       ${epsilonWall} ${sigma} ${repulsive} units box
fix            topWall all wall/lj93 zhi EDGE 	       2 ${sigma} ${repulsive} units box
fix            topWall all wall/lj93 zhi EDGE 	       2 1 ${repulsive} units box
fix            topWall all wall/lj93 zhi EDGE 	       2 1 0.7147 units box
fix            lowSol solvent wall/lj93 zlo EDGE                ${epsilonWall} ${sigma} ${full} units box
fix            lowSol solvent wall/lj93 zlo EDGE                2 ${sigma} ${full} units box
fix            lowSol solvent wall/lj93 zlo EDGE                2 1 ${full} units box
fix            lowSol solvent wall/lj93 zlo EDGE                2 1 3 units box
fix 	       lowCub cubes wall/lj93 zlo EDGE                ${epsilonWall} ${sigma} ${repulsive} units box
fix 	       lowCub cubes wall/lj93 zlo EDGE                2 ${sigma} ${repulsive} units box
fix 	       lowCub cubes wall/lj93 zlo EDGE                2 1 ${repulsive} units box
fix 	       lowCub cubes wall/lj93 zlo EDGE                2 1 0.7147 units box


###################### COMPUTES ##########################

compute        bin1 solvent chunk/atom bin/1d z lower 1.0 units box


######################  FIXES ############################


fix             peclet solvent ave/chunk 10 10 10000 bin1 density/number norm                  none ave one file density.profile

fix              temp solvent ave/chunk 10 10 10000 bin1 temp norm                  none ave one file temp.profile

fix             1 cubes rigid/nve/small molecule
  create bodies CPU = 0.002 seconds
  125 rigid bodies with 142875 atoms
  6.9282032 = max distance from body owner to body atom

fix             2 solvent nve# temp ${temp} ${temp} 10


## Thermostat
region          regthermo block EDGE EDGE EDGE EDGE 0 15
group           thermo dynamic solvent region regthermo every 1000
dynamic group thermo defined
fix             3 thermo langevin ${temp} ${temp} 10 156453
fix             3 thermo langevin 1.0 ${temp} 10 156453
fix             3 thermo langevin 1.0 1.0 10 156453


#### Load balancing

fix             bal all balance 1000 1.05 shift z 10 1.05

############### Diagnostics and computes ###################

compute        	com cubes          rigid/local   1 mol x y z
compute        	quat cubes         rigid/local   1 mol quatw quati quatj quatk

compute 	cc2 cubes 	   chunk/atom 	 molecule
compute 	msd cubes 	   msd/chunk 	 cc2

fix 		msd all ave/time  1 1 10000 c_msd[*] file dump.msd ave one mode vector

dump            1 all custom 500000 dump.lammpstrj id mol type x y z
dump		cubetrj hull custom 500000 cubes.lammpstrj id mol type x y z
dump            com cubes local 10000 dump.*.xyz c_com[*]
dump	        xyz hull xyz 100000 cubes.xyz
dump            quat cubes      local 10000 dump.*.quat c_quat[*]
#dump		mol cubes molfile 10000 mol.xyz xyz


dump            2 all image 10000 image.*.png type type
dump_modify     2 pad 8
dump		image cubes image 10000 image_cubes.*.png type type
dump_modify	image pad 8
dump            3 all movie 5000 movie.avi type type
dump		4 cubes movie 5000 movie_cubes.avi type type


thermo          1000
thermo_style    custom step temp epair evdwl etotal press pe ke atoms

restart         1000000 restart.dat
timestep        0.005
timer           full
New timer settings: style=full  mode=nosync  timeout=off

run 		4000000
Per MPI rank memory allocation (min/avg/max) = 15.67 | 20.16 | 23.61 Mbytes
Step Temp E_pair E_vdwl TotEng Press PotEng KinEng Atoms 
       0   0.99285609   -4.6580589   -4.6580589   -3.5768346   -5.7021629   -4.6580589    1.0812243   520538 
    1000    3.3913865   -7.4680162   -7.4680162   -3.7747826    1.4200351   -7.4680162    3.6932337   520538 
    2000    3.5868388     -7.88126     -7.88126   -3.9751779    1.7385901     -7.88126    3.9060821   520538 
    3000    3.5633036   -8.0608914   -8.0608914   -4.1804392     1.603101   -8.0608914    3.8804521   520538 
    4000    3.4919297   -8.1743731   -8.1743731   -4.3716475    1.5403702   -8.1743731    3.8027256   520538 
    5000    3.4916385    -8.331154    -8.331154   -4.5287455    1.7411152    -8.331154    3.8024085   520538 
    6000    3.4850911   -8.4511738   -8.4511738   -4.6558955    1.8568518   -8.4511738    3.7952784   520538 
    7000    3.4604982    -8.530741    -8.530741   -4.7622444    1.8885261    -8.530741    3.7684966   520538 
    8000    3.4251638   -8.5858728   -8.5858728   -4.8558555    1.6904769   -8.5858728    3.7300173   520538 
    9000    3.3954125   -8.6345818   -8.6345818   -4.9369637    1.6535696   -8.6345818    3.6976181   520538 
   10000    3.3685296   -8.6794795   -8.6794795   -5.0111371    1.6080902   -8.6794795    3.6683425   520538 
   11000    3.3432149   -8.7203044   -8.7203044   -5.0795298    1.6015035   -8.7203044    3.6407746   520538 
   12000    3.3086346   -8.7527839   -8.7527839   -5.1496674    1.5492073   -8.7527839    3.6031165   520538 
   13000    3.2599536   -8.7759351   -8.7759351   -5.2258323    1.5443358   -8.7759351    3.5501028   520538 
   14000     3.208901   -8.8005231   -8.8005231   -5.3060168    1.5563515   -8.8005231    3.4945063   520538 
   15000    3.1675849   -8.8324389   -8.8324389    -5.382926    1.5258704   -8.8324389    3.4495129   520538 
   16000    3.1328791   -8.8680034   -8.8680034   -5.4562854    1.5138425   -8.8680034     3.411718   520538 
   17000    3.1023414    -8.905247    -8.905247   -5.5267846    1.4313774    -8.905247    3.3784624   520538 
   18000    3.0773172   -8.9429424   -8.9429424   -5.5917314    1.3908058   -8.9429424     3.351211   520538 
   19000    3.0608991   -8.9885536   -8.9885536   -5.6552221    1.3263044   -8.9885536    3.3333316   520538 
   20000     3.048071   -9.0327158   -9.0327158   -5.7133541    1.4076389   -9.0327158    3.3193617   520538 
   21000    3.0278061   -9.0664195   -9.0664195   -5.7691263    1.3627611   -9.0664195    3.2972931   520538 
   22000    3.0133894   -9.1031941   -9.1031941   -5.8216008    1.4528463   -9.1031941    3.2815933   520538 
   23000     2.991709   -9.1297006   -9.1297006   -5.8717173    1.3509669   -9.1297006    3.2579833   520538 
   24000    2.9693398    -9.151911    -9.151911   -5.9182879    1.3600509    -9.151911    3.2336231   520538 
   25000    2.9481243    -9.173376    -9.173376   -5.9628566    1.3530183    -9.173376    3.2105194   520538 
   26000     2.928857   -9.1942945   -9.1942945   -6.0047573    1.3068346   -9.1942945    3.1895372   520538 
   27000    2.9020057   -9.2077971   -9.2077971   -6.0475011    1.2854819   -9.2077971     3.160296   520538 
   28000    2.8880987   -9.2343339   -9.2343339   -6.0891826    1.2941209   -9.2343339    3.1451513   520538 
   29000     2.866784    -9.254137    -9.254137   -6.1321976    1.3021921    -9.254137    3.1219394   520538 
   30000    2.8497825   -9.2789461   -9.2789461   -6.1755213    1.3095309   -9.2789461    3.1034248   520538 
   31000    2.8280699   -9.2954234   -9.2954234   -6.2156437    1.2209102   -9.2954234    3.0797797   520538 
   32000    2.8159776   -9.3213482   -9.3213482   -6.2547371    1.3108365   -9.3213482    3.0666111   520538 
   33000    2.8059065   -9.3495733   -9.3495733   -6.2939298    1.2449809   -9.3495733    3.0556435   520538 
   34000    2.7896343      -9.3689      -9.3689   -6.3309769    1.2204109      -9.3689    3.0379231   520538 
   35000    2.7714322   -9.3857841   -9.3857841   -6.3676832    1.1633639   -9.3857841    3.0181009   520538 
   36000    2.7619015   -9.4091408   -9.4091408   -6.4014188    1.2240532   -9.4091408     3.007722   520538 
   37000     2.750476   -9.4299465   -9.4299465   -6.4346669    1.1969261   -9.4299465    2.9952796   520538 
   38000    2.7363436   -9.4481267   -9.4481267   -6.4682373    1.2787382   -9.4481267    2.9798893   520538 
   39000    2.7188824   -9.4619099   -9.4619099   -6.5010359    1.1238005   -9.4619099     2.960874   520538 
   40000    2.7076951   -9.4816916   -9.4816916   -6.5330006    1.1605421   -9.4816916     2.948691   520538 
   41000    2.6917092   -9.4964624   -9.4964624   -6.5651802    1.1252676   -9.4964624    2.9312823   520538 
   42000    2.6810853   -9.5160992   -9.5160992   -6.5963864    1.1775167   -9.5160992    2.9197128   520538 
   43000    2.6627249   -9.5272311   -9.5272311   -6.6275129    1.1087588   -9.5272311    2.8997183   520538 
   44000    2.6502388   -9.5442451   -9.5442451   -6.6581243    1.1881971   -9.5442451    2.8861209   520538 
   45000     2.643235   -9.5666262   -9.5666262   -6.6881325    1.1125863   -9.5666262    2.8784937   520538 
   46000    2.6294392   -9.5796772   -9.5796772   -6.7162072    1.1609919   -9.5796772    2.8634699   520538 
   47000    2.6166431   -9.5934818   -9.5934818   -6.7439469     1.124523   -9.5934818     2.849535   520538 
   48000    2.6083953   -9.6135401   -9.6135401   -6.7729871    1.1288958   -9.6135401    2.8405531   520538 
   49000    2.5976924   -9.6291726   -9.6291726   -6.8002751    1.0808935   -9.6291726    2.8288976   520538 
   50000    2.5909087   -9.6491261   -9.6491261    -6.827616     1.091809   -9.6491261    2.8215101   520538 
   51000    2.5752211   -9.6586913   -9.6586913    -6.854265    1.1005654   -9.6586913    2.8044263   520538 
   52000     2.567503    -9.676759    -9.676759   -6.8807377     1.087517    -9.676759    2.7960213   520538 
   53000    2.5600341   -9.6944856   -9.6944856    -6.906598    1.0711632   -9.6944856    2.7878876   520538 
   54000    2.5463835   -9.7052975   -9.7052975   -6.9322755    1.0673928   -9.7052975     2.773022   520538 
   55000     2.540531   -9.7242507   -9.7242507   -6.9576021    1.0829505   -9.7242507    2.7666486   520538 
   56000    2.5271523   -9.7340949   -9.7340949   -6.9820158    1.0182857   -9.7340949    2.7520792   520538 
   57000    2.5201995   -9.7495852   -9.7495852   -7.0050777    1.0681864   -9.7495852    2.7445075   520538 
   58000    2.5108836   -9.7642858   -9.7642858   -7.0299234    1.1110788   -9.7642858    2.7343625   520538 
   59000    2.4976582   -9.7744388   -9.7744388   -7.0544789   0.98142188   -9.7744388    2.7199599   520538 
   60000    2.4916043   -9.7922809   -9.7922809   -7.0789137    1.0024414   -9.7922809    2.7133672   520538 
   61000    2.4850889   -9.8085647   -9.8085647   -7.1022928   0.97891437   -9.8085647    2.7062719   520538 
   62000    2.4717311   -9.8166403   -9.8166403   -7.1249151   0.99677553   -9.8166403    2.6917252   520538 
   63000    2.4609248    -9.827827    -9.827827   -7.1478699     1.079542    -9.827827    2.6799571   520538 
   64000    2.4530849   -9.8417338   -9.8417338   -7.1703144   0.98327662   -9.8417338    2.6714194   520538 
   65000    2.4455414   -9.8554718   -9.8554718   -7.1922673   0.99917967   -9.8554718    2.6632045   520538 
   66000    2.4319323   -9.8631097   -9.8631097   -7.2147255    1.0459746   -9.8631097    2.6483841   520538 
   67000     2.428553   -9.8816071   -9.8816071   -7.2369031   0.96450185   -9.8816071    2.6447041   520538 
   68000    2.4221063   -9.8976491   -9.8976491   -7.2599654   0.99933805   -9.8976491    2.6376836   520538 
   69000    2.4154367   -9.9123001   -9.9123001   -7.2818797   0.99768266   -9.9123001    2.6304204   520538 
   70000    2.4055546   -9.9218901   -9.9218901   -7.3022313   0.94136896   -9.9218901    2.6196588   520538 
   71000    2.3979473   -9.9363271   -9.9363271   -7.3249527   0.97547524   -9.9363271    2.6113743   520538 
   72000    2.3914989   -9.9480155   -9.9480155   -7.3436634   0.95229526   -9.9480155    2.6043521   520538 
   73000    2.3842692   -9.9605226   -9.9605226   -7.3640438   0.99257163   -9.9605226    2.5964788   520538 
   74000    2.3792128   -9.9761342   -9.9761342   -7.3851618   0.93532472   -9.9761342    2.5909724   520538 
   75000    2.3708316   -9.9869696   -9.9869696   -7.4051244   0.93571896   -9.9869696    2.5818452   520538 
   76000    2.3614361   -9.9972033   -9.9972033   -7.4255898    1.0355202   -9.9972033    2.5716135   520538 
   77000    2.3503617   -10.004976   -10.004976   -7.4454229   0.94273227   -10.004976    2.5595534   520538 
   78000    2.3424563   -10.015475   -10.015475   -7.4645305    0.9416775   -10.015475    2.5509445   520538 
   79000    2.3389443   -10.031022   -10.031022   -7.4839018    1.0030517   -10.031022    2.5471198   520538 
   80000    2.3341684    -10.04565    -10.04565    -7.503731   0.91698468    -10.04565    2.5419189   520538 
   81000    2.3245118   -10.052617   -10.052617   -7.5212142    1.0196029   -10.052617    2.5314028   520538 
   82000    2.3158247   -10.061647   -10.061647    -7.539705    0.9802691   -10.061647    2.5219425   520538 
   83000    2.3146365   -10.077329   -10.077329   -7.5566807   0.90275363   -10.077329    2.5206485   520538 
   84000    2.3002235   -10.079701   -10.079701    -7.574748   0.89228588   -10.079701    2.5049527   520538 
   85000    2.2980715   -10.095722   -10.095722   -7.5931128    0.9068101   -10.095722    2.5026092   520538 
   86000    2.2885471   -10.103894   -10.103894    -7.611657   0.93752511   -10.103894    2.4922371   520538 
   87000    2.2890221   -10.120659   -10.120659   -7.6279044   0.89818872   -10.120659    2.4927544   520538 
   88000    2.2784427   -10.125196   -10.125196   -7.6439629   0.93696769   -10.125196    2.4812334   520538 
   89000    2.2716646   -10.133981   -10.133981    -7.660129   0.92398793   -10.133981     2.473852   520538 
   90000    2.2663157   -10.143926   -10.143926   -7.6758991   0.91572957   -10.143926     2.468027   520538 
   91000    2.2599708   -10.153224   -10.153224   -7.6921067   0.93750356   -10.153224    2.4611174   520538 
   92000    2.2558199   -10.163847   -10.163847   -7.7072502   0.89502354   -10.163847     2.456597   520538 
   93000    2.2399445   -10.163041   -10.163041   -7.7237319   0.88902245   -10.163041    2.4393087   520538 
   94000    2.2409036   -10.178819   -10.178819   -7.7384662    0.8405755   -10.178819    2.4403531   520538 
   95000    2.2361265    -10.18985    -10.18985   -7.7546994   0.82934545    -10.18985    2.4351508   520538 
   96000    2.2267777   -10.194402   -10.194402   -7.7694325   0.87155141   -10.194402    2.4249699   520538 
   97000    2.2200171   -10.201567   -10.201567   -7.7839599   0.89440294   -10.201567    2.4176076   520538 
   98000    2.2170352   -10.213908   -10.213908   -7.7995479   0.84972034   -10.213908    2.4143603   520538 
   99000    2.2074748   -10.217852   -10.217852   -7.8139034   0.83433727   -10.217852     2.403949   520538 
  100000    2.2048351   -10.227939   -10.227939   -7.8268651   0.91847525   -10.227939    2.4010744   520538 
  101000    2.1983031   -10.235322   -10.235322   -7.8413613   0.85281367   -10.235322     2.393961   520538 
  102000    2.1966404   -10.247535   -10.247535   -7.8553843   0.83054073   -10.247535    2.3921503   520538 
  103000     2.191168   -10.255098   -10.255098   -7.8689071    0.7992159   -10.255098    2.3861909   520538 
  104000    2.1859645   -10.264288   -10.264288   -7.8837634   0.86091569   -10.264288    2.3805242   520538 
  105000    2.1800449   -10.271031   -10.271031   -7.8969533    0.8452876   -10.271031    2.3740777   520538 
  106000    2.1740816   -10.276879   -10.276879   -7.9092952   0.90278475   -10.276879    2.3675837   520538 
  107000    2.1691508   -10.284739   -10.284739   -7.9225251   0.85846131   -10.284739     2.362214   520538 
  108000    2.1655077   -10.293792   -10.293792   -7.9355453   0.92608414   -10.293792    2.3582467   520538 
  109000    2.1610377    -10.30234    -10.30234   -7.9489617   0.89417643    -10.30234    2.3533788   520538 
  110000    2.1550353   -10.309096   -10.309096   -7.9622535   0.81190915   -10.309096    2.3468422   520538 
  111000    2.1500657   -10.317675   -10.317675   -7.9762444   0.86202762   -10.317675    2.3414303   520538 
  112000    2.1490863   -10.327662   -10.327662   -7.9872985   0.86371657   -10.327662    2.3403638   520538 
  113000     2.143941   -10.333982   -10.333982    -7.999221   0.79199312   -10.333982    2.3347605   520538 
  114000    2.1347403   -10.336657   -10.336657   -8.0119157    0.8405936   -10.336657    2.3247408   520538 
  115000    2.1327903   -10.346377   -10.346377   -8.0237596   0.88559097   -10.346377    2.3226173   520538 
  116000    2.1297874   -10.354337   -10.354337   -8.0349899   0.82840523   -10.354337    2.3193472   520538 
  117000    2.1240815   -10.359644   -10.359644   -8.0465103   0.85149781   -10.359644    2.3131334   520538 
  118000    2.1215974   -10.368563   -10.368563   -8.0581352   0.79349984   -10.368563    2.3104282   520538 
  119000    2.1191587     -10.3782     -10.3782   -8.0704277   0.83939966     -10.3782    2.3077724   520538 
  120000    2.1129965   -10.382729   -10.382729   -8.0816675   0.79484414   -10.382729    2.3010618   520538 
  121000    2.1099546    -10.39123    -10.39123   -8.0934806   0.78232933    -10.39123    2.2977491   520538 
  122000    2.1043774   -10.396782   -10.396782   -8.1051064   0.86002406   -10.396782    2.2916755   520538 
  123000    2.0970749   -10.401094   -10.401094    -8.117371   0.80318127   -10.401094    2.2837231   520538 
  124000    2.0928206   -10.407228   -10.407228   -8.1281375   0.77867812   -10.407228    2.2790902   520538 
  125000    2.0897189   -10.416425   -10.416425   -8.1407125    0.7862347   -10.416425    2.2757123   520538 
  126000    2.0865293   -10.423341   -10.423341   -8.1511017   0.78909128   -10.423341    2.2722389   520538 
  127000    2.0814237   -10.428885   -10.428885   -8.1622061   0.83141762   -10.428885    2.2666789   520538 
  128000    2.0775241   -10.435885   -10.435885   -8.1734525   0.77418818   -10.435885    2.2624322   520538 
  129000    2.0712632   -10.439944   -10.439944   -8.1843303   0.78983715   -10.439944     2.255614   520538 
  130000     2.068228   -10.449225   -10.449225   -8.1969164   0.74998202   -10.449225    2.2523088   520538 
  131000    2.0641982   -10.455784   -10.455784    -8.207864   0.76936316   -10.455784    2.2479202   520538 
  132000    2.0591974   -10.460185   -10.460185   -8.2177105   0.75752464   -10.460185    2.2424744   520538 
  133000    2.0557234   -10.465845   -10.465845   -8.2271537   0.72762467   -10.465845    2.2386912   520538 
  134000    2.0492939   -10.469899   -10.469899   -8.2382094   0.79078085   -10.469899    2.2316894   520538 
  135000    2.0472609   -10.476556   -10.476556   -8.2470801   0.72037792   -10.476556    2.2294755   520538 
  136000    2.0437479    -10.48302    -10.48302   -8.2573706   0.74836944    -10.48302    2.2256498   520538 
  137000    2.0406051   -10.490274   -10.490274    -8.268047   0.71207304   -10.490274    2.2222273   520538 
  138000     2.033431   -10.493561   -10.493561   -8.2791459     0.764902   -10.493561    2.2144147   520538 
  139000    2.0331315   -10.503962   -10.503962   -8.2898732   0.70080037   -10.503962    2.2140884   520538 
  140000    2.0300156   -10.509873   -10.509873   -8.2991782   0.77248584   -10.509873    2.2106953   520538 
  141000    2.0273384   -10.517272   -10.517272   -8.3094927   0.76463818   -10.517272    2.2077798   520538 
  142000    2.0205638   -10.520302   -10.520302   -8.3198995    0.7227374   -10.520302    2.2004022   520538 
  143000    2.0159793    -10.52547    -10.52547   -8.3300602   0.75141557    -10.52547    2.1954096   520538 
  144000    2.0119377   -10.531761   -10.531761    -8.340753   0.73935854   -10.531761    2.1910084   520538 
  145000    2.0066417   -10.535561   -10.535561   -8.3503201   0.72923165   -10.535561     2.185241   520538 
  146000    2.0054073   -10.543576   -10.543576   -8.3596793   0.76251316   -10.543576    2.1838967   520538 
  147000    2.0025418   -10.550011   -10.550011   -8.3692352   0.75371807   -10.550011    2.1807761   520538 
  148000    1.9984194    -10.55589    -10.55589   -8.3796035    0.7132316    -10.55589    2.1762869   520538 
  149000    1.9965621   -10.563375   -10.563375   -8.3891111   0.71041686   -10.563375    2.1742642   520538 
  150000     1.991816    -10.56624    -10.56624   -8.3971438   0.73765362    -10.56624    2.1690957   520538 
  151000    1.9865741   -10.571205   -10.571205   -8.4078179    0.7688305   -10.571205    2.1633872   520538 
  152000    1.9845979   -10.577934   -10.577934    -8.416699   0.72627402   -10.577934    2.1612352   520538 
  153000    1.9817492   -10.584382   -10.584382    -8.426249   0.71230317   -10.584382     2.158133   520538 
  154000    1.9757008   -10.586827   -10.586827   -8.4352813   0.75066357   -10.586827    2.1515462   520538 
  155000    1.9741772   -10.594025   -10.594025   -8.4441383   0.76357241   -10.594025     2.149887   520538 
  156000    1.9671645   -10.595168   -10.595168   -8.4529177   0.68340482   -10.595168    2.1422501   520538 
  157000    1.9653886   -10.601701   -10.601701   -8.4613846   0.73169549   -10.601701    2.1403161   520538 
  158000     1.959979   -10.604319   -10.604319   -8.4698942   0.68259785   -10.604319    2.1344251   520538 
  159000     1.959083   -10.613038   -10.613038   -8.4795882    0.7361595   -10.613038    2.1334494   520538 
  160000    1.9546893   -10.617018   -10.617018   -8.4883534   0.71272154   -10.617018    2.1286646   520538 
  161000    1.9523808   -10.622599   -10.622599   -8.4964484   0.69403668   -10.622599    2.1261506   520538 
  162000    1.9508833   -10.628699   -10.628699   -8.5041793   0.70710811   -10.628699    2.1245199   520538 
  163000    1.9408841   -10.627637   -10.627637   -8.5140061   0.76382883   -10.627637    2.1136306   520538 
  164000    1.9439718    -10.63935    -10.63935   -8.5223571   0.67659336    -10.63935    2.1169932   520538 
  165000     1.940273   -10.642643   -10.642643   -8.5296777   0.69445031   -10.642643    2.1129652   520538 
  166000    1.9345967   -10.644203   -10.644203   -8.5374197   0.68119622   -10.644203    2.1067836   520538 
  167000    1.9310858   -10.649799   -10.649799   -8.5468383   0.66121872   -10.649799    2.1029603   520538 
  168000    1.9298098    -10.65668    -10.65668   -8.5551092   0.65394639    -10.65668    2.1015707   520538 
  169000     1.924871   -10.660013   -10.660013   -8.5638203   0.71351987   -10.660013    2.0961923   520538 
  170000    1.9202848    -10.66398    -10.66398   -8.5727825   0.68926745    -10.66398    2.0911979   520538 
  171000      1.92216   -10.674162   -10.674162   -8.5809215   0.66800838   -10.674162    2.0932401   520538 
  172000    1.9166656   -10.676123   -10.676123   -8.5888667   0.70200193   -10.676123    2.0872566   520538 
  173000    1.9117288   -10.678496   -10.678496   -8.5966151   0.69140245   -10.678496    2.0818805   520538 
  174000    1.9103479   -10.685409   -10.685409   -8.6050321   0.65334987   -10.685409    2.0803767   520538 
  175000    1.9069316   -10.688615   -10.688615   -8.6119583   0.70094673   -10.688615    2.0766563   520538 
  176000    1.9053719   -10.694675   -10.694675    -8.619717   0.66313104   -10.694675    2.0749577   520538 
  177000    1.9013892   -10.697951   -10.697951   -8.6273309   0.71738347   -10.697951    2.0706206   520538 
  178000    1.8971436   -10.701655   -10.701655    -8.635658   0.65946432   -10.701655    2.0659971   520538 
  179000    1.8970269   -10.709682   -10.709682   -8.6438122   0.70797375   -10.709682      2.06587   520538 
  180000    1.8940997   -10.712976   -10.712976   -8.6502934   0.64301288   -10.712976    2.0626822   520538 
  181000    1.8881166   -10.713402   -10.713402   -8.6572353   0.64940768   -10.713402    2.0561666   520538 
  182000    1.8867842   -10.719406   -10.719406   -8.6646899    0.6519796   -10.719406    2.0547157   520538 
  183000    1.8844297   -10.724889   -10.724889   -8.6727373   0.70179448   -10.724889    2.0521516   520538 
  184000    1.8799011   -10.727618   -10.727618   -8.6803979   0.65712087   -10.727618    2.0472199   520538 
  185000    1.8825077   -10.737537   -10.737537   -8.6874783   0.64249245   -10.737537    2.0500585   520538 
  186000     1.879403   -10.740967   -10.740967   -8.6942892   0.67563487   -10.740967    2.0466775   520538 
  187000    1.8740672   -10.743555   -10.743555   -8.7026884   0.65950884   -10.743555    2.0408668   520538 
  188000    1.8720229   -10.748786   -10.748786   -8.7101452   0.63378589   -10.748786    2.0386406   520538 
  189000    1.8689989   -10.753114   -10.753114   -8.7177662   0.64230437   -10.753114    2.0353474   520538 
  190000     1.866396   -10.757596   -10.757596   -8.7250828    0.6231359   -10.757596    2.0325128   520538 
  191000    1.8642352   -10.762895   -10.762895   -8.7327349   0.63585339   -10.762895    2.0301597   520538 
  192000    1.8575856   -10.762461   -10.762461   -8.7395425   0.61694004   -10.762461    2.0229182   520538 
  193000    1.8565171   -10.767705   -10.767705   -8.7459506    0.6529687   -10.767705    2.0217547   520538 
  194000    1.8536616    -10.77264    -10.77264   -8.7539947   0.62702837    -10.77264     2.018645   520538 
  195000    1.8519533   -10.777463   -10.777463   -8.7606788   0.69646177   -10.777463    2.0167846   520538 
  196000    1.8470724   -10.780749   -10.780749   -8.7692791   0.64034173   -10.780749    2.0114694   520538 
  197000    1.8435262   -10.783367   -10.783367   -8.7757599   0.66529434   -10.783367    2.0076076   520538 
  198000    1.8425476   -10.788819   -10.788819    -8.782277   0.66838031   -10.788819    2.0065418   520538 
  199000    1.8426358   -10.794918   -10.794918   -8.7882802   0.65234554   -10.794918    2.0066379   520538 
  200000    1.8377556   -10.795286   -10.795286   -8.7939627   0.60907939   -10.795286    2.0013233   520538 
  201000     1.834771   -10.799463   -10.799463   -8.8013903   0.63649768   -10.799463    1.9980731   520538 
  202000    1.8316807   -10.802854   -10.802854   -8.8081458   0.62492781   -10.802854    1.9947078   520538 
  203000    1.8310674   -10.807239   -10.807239   -8.8131995   0.63701753   -10.807239    1.9940399   520538 
  204000     1.825353   -10.807768   -10.807768   -8.8199507   0.66101829   -10.807768    1.9878169   520538 
  205000    1.8239563   -10.812774   -10.812774    -8.826478   0.63834787   -10.812774    1.9862958   520538 
  206000     1.819274   -10.814716   -10.814716   -8.8335194   0.61095133   -10.814716    1.9811968   520538 
  207000    1.8158745   -10.818416   -10.818416   -8.8409214   0.59898537   -10.818416    1.9774947   520538 
  208000    1.8126222   -10.822198   -10.822198    -8.848245   0.59763752   -10.822198    1.9739529   520538 
  209000    1.8126078    -10.82942    -10.82942   -8.8554828   0.61325027    -10.82942    1.9739372   520538 
  210000    1.8098119   -10.833165   -10.833165    -8.862272    0.6171548   -10.833165    1.9708926   520538 
  211000    1.8070064   -10.836276   -10.836276   -8.8684383   0.57194858   -10.836276    1.9678373   520538 
  212000    1.8029887   -10.838857   -10.838857   -8.8753947   0.60985159   -10.838857     1.963462   520538 
  213000     1.803451   -10.844417   -10.844417   -8.8804513   0.59978543   -10.844417    1.9639654   520538 
  214000      1.80121   -10.847819   -10.847819   -8.8862938   0.62112281   -10.847819     1.961525   520538 
  215000     1.800718   -10.853984   -10.853984   -8.8929951   0.59317875   -10.853984    1.9609892   520538 
  216000     1.798246   -10.856931   -10.856931   -8.8986335   0.61799627   -10.856931    1.9582972   520538 
  217000    1.7921023   -10.856704   -10.856704   -8.9050975   0.62990223   -10.856704    1.9516067   520538 
  218000    1.7930648    -10.86412    -10.86412   -8.9114648   0.62791567    -10.86412    1.9526549   520538 
  219000    1.7887968   -10.865629   -10.865629   -8.9176225   0.63225959   -10.865629     1.948007   520538 
  220000    1.7870575   -10.870583   -10.870583   -8.9244703    0.5773704   -10.870583    1.9461129   520538 
  221000    1.7861836   -10.875002   -10.875002   -8.9298407   0.61252582   -10.875002    1.9451612   520538 
  222000    1.7821715    -10.87676    -10.87676   -8.9359675   0.53830884    -10.87676     1.940792   520538 
  223000    1.7776749   -10.878988   -10.878988   -8.9430926   0.63812585   -10.878988    1.9358952   520538 
  224000    1.7772865    -10.88353    -10.88353   -8.9480582   0.58804324    -10.88353    1.9354722   520538 
  225000    1.7755003   -10.887656   -10.887656   -8.9541289    0.6434713   -10.887656     1.933527   520538 
  226000    1.7740581   -10.891584   -10.891584   -8.9596273   0.60429587   -10.891584    1.9319565   520538 
  227000    1.7700752   -10.894912   -10.894912   -8.9672927   0.58010741   -10.894912    1.9276191   520538 
  228000    1.7686756   -10.899934   -10.899934   -8.9738395   0.61349474   -10.899934     1.926095   520538 
  229000     1.765005   -10.901796   -10.901796   -8.9796987   0.56178057   -10.901796    1.9220976   520538 
  230000     1.762983    -10.90523    -10.90523    -8.985334   0.58548892    -10.90523    1.9198957   520538 
  231000    1.7633168   -10.910511   -10.910511   -8.9902522   0.56637473   -10.910511    1.9202592   520538 
  232000    1.7618066   -10.914893   -10.914893   -8.9962784   0.58965519   -10.914893    1.9186145   520538 
  233000    1.7590494   -10.917845   -10.917845   -9.0022332   0.59060382   -10.917845    1.9156119   520538 
  234000    1.7572109   -10.921119   -10.921119   -9.0075094   0.58967234   -10.921119    1.9136098   520538 
  235000    1.7512304   -10.921052   -10.921052   -9.0139549   0.56413366   -10.921052     1.907097   520538 
  236000    1.7521051   -10.928247   -10.928247   -9.0201974   0.56888715   -10.928247    1.9080496   520538 
  237000     1.749328   -10.931077   -10.931077   -9.0260522   0.55418993   -10.931077    1.9050253   520538 
  238000    1.7469299   -10.932498   -10.932498   -9.0300841   0.56198547   -10.932498    1.9024138   520538 
  239000    1.7440577   -10.935077   -10.935077   -9.0357907   0.55877843   -10.935077    1.8992859   520538 
  240000    1.7439471    -10.94082    -10.94082   -9.0416544   0.59024355    -10.94082    1.8991655   520538 
  241000    1.7400143   -10.940985   -10.940985   -9.0461025   0.60434366   -10.940985    1.8948827   520538 
  242000    1.7395764   -10.945733   -10.945733   -9.0513272   0.58535854   -10.945733    1.8944058   520538 
  243000    1.7365071   -10.948246   -10.948246   -9.0571825   0.55064905   -10.948246    1.8910633   520538 
  244000     1.734123   -10.950095   -10.950095   -9.0616276   0.59232857   -10.950095     1.888467   520538 
  245000    1.7291558   -10.951447   -10.951447   -9.0683891   0.53837508   -10.951447    1.8830577   520538 
  246000    1.7296965   -10.958397   -10.958397   -9.0747501   0.59259969   -10.958397    1.8836465   520538 
  247000    1.7260501   -10.959626   -10.959626   -9.0799505   0.57845151   -10.959626    1.8796756   520538 
  248000    1.7281196   -10.966333   -10.966333   -9.0844034   0.53791689   -10.966333    1.8819293   520538 
  249000    1.7258529   -10.969498   -10.969498   -9.0900371   0.55260227   -10.969498    1.8794608   520538 
  250000    1.7244506   -10.974102   -10.974102   -9.0961681   0.57616423   -10.974102    1.8779337   520538 
  251000    1.7186944   -10.972909   -10.972909   -9.1012443   0.56260686   -10.972909    1.8716651   520538 
  252000    1.7184436   -10.977258   -10.977258    -9.105866    0.5578205   -10.977258     1.871392   520538 
  253000    1.7167656   -10.980813   -10.980813   -9.1112483     0.567259   -10.980813    1.8695647   520538 
  254000    1.7130778   -10.982826   -10.982826   -9.1172771   0.57612819   -10.982826    1.8655487   520538 
  255000    1.7138264   -10.988597   -10.988597   -9.1222329   0.54915075   -10.988597     1.866364   520538 
  256000    1.7113391   -10.990088   -10.990088   -9.1264328   0.52542638   -10.990088    1.8636553   520538 
  257000    1.7065386   -10.990265   -10.990265   -9.1318373   0.60199776   -10.990265    1.8584274   520538 
  258000    1.7056635   -10.994825   -10.994825   -9.1373509   0.57673729   -10.994825    1.8574745   520538 
  259000    1.7036929   -10.998629   -10.998629    -9.143301   0.54535542   -10.998629    1.8553285   520538 
  260000    1.7028522   -11.002607   -11.002607    -9.148194   0.52882116   -11.002607     1.854413   520538 
  261000    1.6990194   -11.003237   -11.003237   -9.1529975   0.50688353   -11.003237    1.8502391   520538 
  262000    1.6979578   -11.006388   -11.006388   -9.1573047   0.54358865   -11.006388    1.8490829   520538 
  263000    1.6977901   -11.011137   -11.011137   -9.1622362   0.55902812   -11.011137    1.8489003   520538 
  264000    1.6951611   -11.013102   -11.013102   -9.1670646   0.54623407   -11.013102    1.8460373   520538 
  265000    1.6929642    -11.01509    -11.01509   -9.1714451    0.5470382    -11.01509    1.8436449   520538 
  266000    1.6901205   -11.017952   -11.017952    -9.177404   0.52355964   -11.017952    1.8405481   520538 
  267000    1.6859432     -11.0189     -11.0189   -9.1829007   0.51760542     -11.0189     1.835999   520538 
  268000     1.684545   -11.021952   -11.021952   -9.1874756   0.51816583   -11.021952    1.8344763   520538 
  269000    1.6837506   -11.026126   -11.026126    -9.192515   0.52621232   -11.026126    1.8336113   520538 
  270000    1.6808606   -11.028093   -11.028093   -9.1976289   0.54492876   -11.028093     1.830464   520538 
  271000    1.6797827    -11.03218    -11.03218   -9.2028896   0.53104434    -11.03218    1.8292902   520538 
  272000     1.675305   -11.032265   -11.032265   -9.2078509   0.53439303   -11.032265     1.824414   520538 
  273000    1.6762258   -11.038792   -11.038792   -9.2133755   0.52640225   -11.038792    1.8254167   520538 
  274000    1.6715663    -11.03829    -11.03829   -9.2179478   0.53832774    -11.03829    1.8203426   520538 
  275000    1.6715666   -11.042582   -11.042582    -9.222239   0.52733529   -11.042582    1.8203429   520538 
  276000    1.6693801   -11.045859   -11.045859    -9.227897   0.54075615   -11.045859    1.8179617   520538 
  277000    1.6675763   -11.048054   -11.048054    -9.232057    0.5022279   -11.048054    1.8159974   520538 
  278000    1.6649881   -11.049226   -11.049226   -9.2360468   0.58059106   -11.049226    1.8131788   520538 
  279000    1.6622586   -11.051067   -11.051067   -9.2408601   0.54244015   -11.051067    1.8102064   520538 
  280000    1.6634233   -11.057543   -11.057543   -9.2460684    0.5344713   -11.057543    1.8114747   520538 
  281000    1.6610224   -11.059765   -11.059765   -9.2509054   0.51730358   -11.059765    1.8088601   520538 
  282000     1.658267   -11.062582   -11.062582   -9.2567222   0.49377369   -11.062582    1.8058595   520538 
  283000    1.6547371   -11.063165   -11.063165   -9.2611498   0.54494249   -11.063165    1.8020154   520538 
  284000    1.6526713    -11.06595    -11.06595   -9.2661844   0.54992845    -11.06595    1.7997658   520538 
  285000    1.6515329   -11.068705   -11.068705   -9.2701785   0.49473255   -11.068705    1.7985261   520538 
  286000    1.6501386   -11.071226   -11.071226   -9.2742184   0.54520075   -11.071226    1.7970076   520538 
  287000    1.6499385    -11.07632    -11.07632   -9.2795306   0.58703383    -11.07632    1.7967897   520538 
  288000    1.6459194   -11.076634   -11.076634   -9.2842208   0.48125327   -11.076634     1.792413   520538 
  289000    1.6444547    -11.07905    -11.07905   -9.2882326   0.51695595    -11.07905    1.7908178   520538 
  290000     1.645747   -11.085166   -11.085166    -9.292941   0.51568383   -11.085166    1.7922252   520538 
  291000    1.6420565   -11.085444   -11.085444   -9.2972379   0.51488174   -11.085444    1.7882062   520538 
  292000    1.6401923   -11.087445   -11.087445   -9.3012685    0.5144344   -11.087445     1.786176   520538 
  293000    1.6403234   -11.091011   -11.091011   -9.3046922   0.49538194   -11.091011    1.7863189   520538 
  294000    1.6347303   -11.089879   -11.089879   -9.3096515   0.50253455   -11.089879    1.7802279   520538 
  295000    1.6351374   -11.094284   -11.094284   -9.3136129   0.50195899   -11.094284    1.7806713   520538 
  296000    1.6321109   -11.094773   -11.094773   -9.3173976   0.52186416   -11.094773    1.7773754   520538 
  297000    1.6308707   -11.097992   -11.097992    -9.321967   0.49041616   -11.097992    1.7760248   520538 
  298000    1.6296532    -11.10061    -11.10061   -9.3259108   0.46303563    -11.10061     1.774699   520538 
  299000    1.6268161   -11.100794   -11.100794   -9.3291845   0.52368359   -11.100794    1.7716094   520538 
  300000    1.6263038   -11.104784   -11.104784   -9.3337328   0.51578586   -11.104784    1.7710515   520538 
  301000    1.6258255   -11.108305   -11.108305   -9.3377744   0.52320767   -11.108305    1.7705306   520538 
  302000     1.625289   -11.111841   -11.111841   -9.3418951    0.4780123   -11.111841    1.7699463   520538 
  303000    1.6220915   -11.112612   -11.112612   -9.3461476   0.49802713   -11.112612    1.7664642   520538 
  304000     1.619457   -11.113493   -11.113493   -9.3498979   0.47771418   -11.113493    1.7635953   520538 
  305000    1.6163274   -11.116139   -11.116139    -9.355952   0.50948315   -11.116139    1.7601871   520538 
  306000    1.6162565   -11.119055   -11.119055   -9.3589453   0.48174689   -11.119055    1.7601099   520538 
  307000    1.6145255   -11.121328   -11.121328   -9.3631036    0.4913641   -11.121328    1.7582248   520538 
  308000    1.6092624   -11.120035   -11.120035   -9.3675421   0.49130905   -11.120035    1.7524933   520538 
  309000    1.6092674   -11.123608   -11.123608   -9.3711096   0.47977602   -11.123608    1.7524987   520538 
  310000    1.6089897   -11.127363   -11.127363   -9.3751663    0.5000988   -11.127363    1.7521963   520538 
  311000    1.6069525   -11.129145   -11.129145   -9.3791669   0.47236749   -11.129145    1.7499778   520538 
  312000    1.6066339   -11.132948   -11.132948   -9.3833168   0.48176875   -11.132948    1.7496309   520538 
  313000     1.601679   -11.132341   -11.132341   -9.3881057    0.4627863   -11.132341    1.7442349   520538 
  314000    1.6017296   -11.135881   -11.135881   -9.3915913    0.5042832   -11.135881      1.74429   520538 
  315000    1.6003591   -11.139613   -11.139613   -9.3968152   0.47417302   -11.139613    1.7427976   520538 
  316000     1.598982   -11.140956   -11.140956   -9.3996583   0.47065269   -11.140956    1.7412979   520538 
  317000    1.5974661   -11.143211   -11.143211   -9.4035636   0.41709586   -11.143211    1.7396471   520538 
  318000    1.5987926   -11.147903   -11.147903   -9.4068111   0.49649528   -11.147903    1.7410917   520538 
  319000    1.5965211    -11.14926    -11.14926   -9.4106424    0.4974361    -11.14926     1.738618   520538 
  320000    1.5951092   -11.151449   -11.151449   -9.4143682    0.4717091   -11.151449    1.7370804   520538 
  321000    1.5917626   -11.152691   -11.152691   -9.4192551   0.44401985   -11.152691     1.733436   520538 
  322000    1.5904067   -11.154523   -11.154523   -9.4225634   0.43849181   -11.154523    1.7319593   520538 
  323000    1.5884729   -11.156541   -11.156541   -9.4266877   0.49469412   -11.156541    1.7298535   520538 
  324000    1.5874371   -11.158895   -11.158895   -9.4301698   0.49112877   -11.158895    1.7287254   520538 
  325000    1.5860001   -11.161373   -11.161373    -9.434212   0.52298203   -11.161373    1.7271606   520538 
  326000    1.5863454   -11.166067   -11.166067     -9.43853   0.49914647   -11.166067    1.7275366   520538 
  327000     1.581378   -11.165722   -11.165722   -9.4435953   0.53457982   -11.165722    1.7221271   520538 
  328000    1.5807331   -11.169661   -11.169661   -9.4482366   0.45841633   -11.169661    1.7214247   520538 
  329000    1.5772999   -11.169835   -11.169835   -9.4521489   0.51205915   -11.169835     1.717686   520538 
  330000    1.5769403    -11.17332    -11.17332   -9.4560257   0.48559384    -11.17332    1.7172944   520538 
  331000     1.574326   -11.174264   -11.174264   -9.4598165    0.4483612   -11.174264    1.7144474   520538 
  332000     1.577558   -11.181616   -11.181616   -9.4636489   0.48917106   -11.181616    1.7179671   520538 
  333000    1.5708253   -11.177472   -11.177472   -9.4668365   0.48268681   -11.177472    1.7106351   520538 
  334000    1.5700369   -11.179534   -11.179534   -9.4697571   0.45777356   -11.179534    1.7097766   520538 
  335000    1.5713686   -11.184056   -11.184056   -9.4728291   0.47006788   -11.184056    1.7112268   520538 
  336000    1.5679742   -11.184198   -11.184198    -9.476668   0.45865831   -11.184198    1.7075303   520538 
  337000     1.567645   -11.188178   -11.188178   -9.4810061   0.47245695   -11.188178    1.7071718   520538 
  338000    1.5656365   -11.188326   -11.188326   -9.4833412   0.48678399   -11.188326    1.7049846   520538 
  339000    1.5636358   -11.190426   -11.190426     -9.48762    0.4297332   -11.190426    1.7028057   520538 
  340000    1.5620835   -11.192304   -11.192304    -9.491189   0.46941409   -11.192304    1.7011153   520538 
  341000    1.5584332   -11.192601   -11.192601   -9.4954608   0.45180978   -11.192601    1.6971401   520538 
  342000    1.5617227   -11.197835   -11.197835   -9.4971122   0.44935165   -11.197835    1.7007223   520538 
  343000    1.5581638   -11.197471   -11.197471   -9.5006246   0.42214804   -11.197471    1.6968467   520538 
  344000      1.55661   -11.199699   -11.199699    -9.504544    0.4709338   -11.199699    1.6951546   520538 
  345000    1.5564835    -11.20342    -11.20342   -9.5084034   0.43523274    -11.20342    1.6950169   520538 
  346000    1.5533741   -11.203464   -11.203464    -9.511833   0.43041109   -11.203464    1.6916307   520538 
  347000    1.5520216   -11.206023   -11.206023   -9.5158652   0.43578512   -11.206023    1.6901578   520538 
  348000    1.5528319   -11.209141   -11.209141   -9.5181012   0.46292787   -11.209141    1.6910402   520538 
  349000     1.550099   -11.210687   -11.210687   -9.5226233   0.42322374   -11.210687    1.6880641   520538 
  350000    1.5471251   -11.211293   -11.211293   -9.5264676   0.45117624   -11.211293    1.6848255   520538 
  351000    1.5452875   -11.212852   -11.212852    -9.530028   0.45493697   -11.212852    1.6828244   520538 
  352000     1.543438   -11.213986   -11.213986   -9.5331758   0.42775375   -11.213986    1.6808103   520538 
  353000    1.5430669   -11.217891   -11.217891   -9.5374852   0.42948335   -11.217891    1.6804061   520538 
  354000    1.5441721   -11.222653   -11.222653   -9.5410434   0.48279728   -11.222653    1.6816097   520538 
  355000     1.542881   -11.223758   -11.223758   -9.5435539   0.42485966   -11.223758    1.6802037   520538 
  356000    1.5387604    -11.22306    -11.22306   -9.5473435   0.43421435    -11.22306    1.6757164   520538 
  357000    1.5385603   -11.225189   -11.225189   -9.5496901   0.46085075   -11.225189    1.6754984   520538 
  358000    1.5355755   -11.225885   -11.225885   -9.5536368   0.44635071   -11.225885    1.6722479   520538 
  359000    1.5332199   -11.226654   -11.226654   -9.5569708   0.38395535   -11.226654    1.6696827   520538 
  360000    1.5361437    -11.23331    -11.23331   -9.5604429   0.41297077    -11.23331    1.6728667   520538 
  361000    1.5322084    -11.23275    -11.23275   -9.5641691   0.44960773    -11.23275    1.6685812   520538 
  362000    1.5304391   -11.233898   -11.233898   -9.5672435   0.38294298   -11.233898    1.6666544   520538 
  363000    1.5305005   -11.237339   -11.237339   -9.5706175   0.39730332   -11.237339    1.6667213   520538 
  364000    1.5302193   -11.239174   -11.239174   -9.5727591   0.41703028   -11.239174    1.6664151   520538 
  365000    1.5286512    -11.24133    -11.24133   -9.5766223   0.44279946    -11.24133    1.6647074   520538 
  366000    1.5265904   -11.242099   -11.242099   -9.5796355   0.40716773   -11.242099    1.6624632   520538 
  367000    1.5262072   -11.245779   -11.245779   -9.5837327   0.43142761   -11.245779    1.6620459   520538 
  368000    1.5238049   -11.246436   -11.246436   -9.5870065   0.42349571   -11.246436    1.6594297   520538 
  369000    1.5236636   -11.250651   -11.250651   -9.5913749   0.42396571   -11.250651    1.6592758   520538 
  370000    1.5215393   -11.251789   -11.251789   -9.5948268   0.42934775   -11.251789    1.6569625   520538 
  371000    1.5191166   -11.252458   -11.252458   -9.5981337   0.41374777   -11.252458    1.6543241   520538 
  372000    1.5142552   -11.250509   -11.250509   -9.6014794   0.45569811   -11.250509    1.6490301   520538 
  373000    1.5149954   -11.253853   -11.253853   -9.6040172   0.44619155   -11.253853    1.6498361   520538 
  374000    1.5160648   -11.259096   -11.259096   -9.6080948   0.45201717   -11.259096    1.6510007   520538 
  375000    1.5111475   -11.256786   -11.256786   -9.6111397   0.44354755   -11.256786    1.6456458   520538 
  376000    1.5139036   -11.263214   -11.263214   -9.6145666    0.4455344   -11.263214    1.6486472   520538 
  377000     1.509075   -11.259979   -11.259979   -9.6165902   0.42919388   -11.259979    1.6433888   520538 
  378000    1.5090618   -11.262928   -11.262928   -9.6195531   0.43523738   -11.262928    1.6433745   520538 
  379000    1.5059664   -11.264102   -11.264102   -9.6240987   0.49157725   -11.264102    1.6400035   520538 
  380000    1.5034146   -11.264882   -11.264882    -9.627657   0.43976039   -11.264882    1.6372246   520538 
  381000    1.5060265   -11.270948   -11.270948   -9.6308794   0.40276931   -11.270948     1.640069   520538 
  382000     1.505371   -11.271829   -11.271829   -9.6324739   0.39349243   -11.271829    1.6393552   520538 
  383000    1.5045601   -11.273457   -11.273457   -9.6349849   0.44882533   -11.273457    1.6384721   520538 
  384000       1.5031   -11.275754   -11.275754   -9.6388717   0.42073907   -11.275754     1.636882   520538 
  385000    1.5037839   -11.279065   -11.279065   -9.6414386   0.43324483   -11.279065    1.6376268   520538 
  386000     1.499696   -11.277605   -11.277605   -9.6444304   0.41919557   -11.277605     1.633175   520538 
  387000    1.4977507   -11.277679   -11.277679   -9.6466226   0.40707658   -11.277679    1.6310566   520538 
  388000    1.4940692   -11.277152   -11.277152   -9.6501046   0.40276683   -11.277152    1.6270474   520538 
  389000    1.4976168   -11.284819   -11.284819   -9.6539077   0.35485119   -11.284819    1.6309108   520538 
  390000    1.4942265   -11.284264   -11.284264    -9.657045   0.42424008   -11.284264    1.6272188   520538 
  391000    1.4922749   -11.285273   -11.285273     -9.66018   0.39230849   -11.285273    1.6250934   520538 
  392000     1.492068   -11.287257   -11.287257   -9.6623886    0.3964893   -11.287257    1.6248681   520538 
  393000    1.4926092   -11.290857   -11.290857   -9.6653996   0.40559305   -11.290857    1.6254575   520538 
  394000     1.488101   -11.289508   -11.289508     -9.66896   0.37383834   -11.289508     1.620548   520538 
  395000    1.4885073   -11.292571   -11.292571   -9.6715809   0.44562348   -11.292571    1.6209905   520538 
  396000    1.4874874   -11.293765   -11.293765   -9.6738854   0.39655695   -11.293765    1.6198799   520538 
  397000    1.4868122    -11.29562    -11.29562   -9.6764754   0.38458029    -11.29562    1.6191445   520538 
  398000    1.4843505   -11.296271   -11.296271   -9.6798074    0.4000527   -11.296271    1.6164637   520538 
  399000    1.4862571   -11.302244   -11.302244   -9.6837043   0.35965265   -11.302244      1.61854   520538 
  400000    1.4813524   -11.299083   -11.299083   -9.6858841   0.43769361   -11.299083    1.6131988   520538 
  401000    1.4809017    -11.30209    -11.30209   -9.6893822   0.43522203    -11.30209     1.612708   520538 
  402000    1.4813079   -11.306021   -11.306021   -9.6928705   0.38090718   -11.306021    1.6131504   520538 
  403000    1.4778979   -11.304549   -11.304549   -9.6951119   0.33721296   -11.304549    1.6094368   520538 
  404000    1.4786937   -11.307897   -11.307897   -9.6975935   0.37058305   -11.307897    1.6103034   520538 
  405000    1.4758895   -11.307231   -11.307231   -9.6999809   0.40961232   -11.307231    1.6072497   520538 
  406000     1.479166   -11.313727   -11.313727   -9.7029089    0.4036091   -11.313727    1.6108178   520538 
  407000    1.4775193   -11.314503   -11.314503   -9.7054783   0.41993596   -11.314503    1.6090246   520538 
  408000    1.4744102   -11.314588   -11.314588   -9.7089494   0.36735773   -11.314588    1.6056388   520538 
  409000    1.4705949   -11.313425   -11.313425   -9.7119407   0.38129136   -11.313425    1.6014838   520538 
  410000    1.4709675   -11.317191   -11.317191   -9.7153012   0.37884765   -11.317191    1.6018896   520538 
  411000    1.4686268   -11.318161   -11.318161   -9.7188208   0.39223871   -11.318161    1.5993406   520538 
  412000     1.466594   -11.319694   -11.319694   -9.7225668   0.42372461   -11.319694    1.5971269   520538 
  413000    1.4665958   -11.321584   -11.321584   -9.7244549   0.36816189   -11.321584    1.5971288   520538 
  414000    1.4650117   -11.322298   -11.322298   -9.7268946   0.40784274   -11.322298    1.5954037   520538 
  415000    1.4651195    -11.32519    -11.32519   -9.7296692   0.38794686    -11.32519     1.595521   520538 
  416000    1.4629158   -11.325867   -11.325867   -9.7327462   0.39471114   -11.325867    1.5931212   520538 
  417000    1.4622329   -11.328176   -11.328176   -9.7357981   0.40345286   -11.328176    1.5923776   520538 
  418000    1.4641824   -11.332567   -11.332567   -9.7380665   0.38631034   -11.332567    1.5945006   520538 
  419000    1.4608564   -11.331302   -11.331302   -9.7404237   0.34164386   -11.331302    1.5908786   520538 
  420000    1.4570056   -11.330372   -11.330372   -9.7436873   0.34261713   -11.330372    1.5866851   520538 
  421000    1.4569778   -11.333164   -11.333164   -9.7465097   0.38741405   -11.333164    1.5866547   520538 
  422000    1.4591167   -11.337402   -11.337402   -9.7484184   0.38650669   -11.337402     1.588984   520538 
  423000     1.457754   -11.338403   -11.338403   -9.7509033   0.37710818   -11.338403    1.5875001   520538 
  424000    1.4542187   -11.337613   -11.337613   -9.7539625   0.40969534   -11.337613    1.5836501   520538 
  425000    1.4545503   -11.339731   -11.339731     -9.75572   0.42184383   -11.339731    1.5840112   520538 
  426000    1.4522421   -11.340171   -11.340171   -9.7586738   0.35643355   -11.340171    1.5814976   520538 
  427000    1.4527741     -11.3431     -11.3431   -9.7610233   0.42247894     -11.3431    1.5820769   520538 
  428000       1.4529   -11.344969   -11.344969   -9.7627547   0.37241601   -11.344969     1.582214   520538 
  429000    1.4507753   -11.345944   -11.345944   -9.7660442   0.38361651   -11.345944    1.5799002   520538 
  430000    1.4489784   -11.345426   -11.345426    -9.767483   0.39825808   -11.345426    1.5779434   520538 
  431000    1.4464133   -11.345239   -11.345239   -9.7700888   0.35248483   -11.345239    1.5751499   520538 
  432000    1.4473432   -11.347413   -11.347413   -9.7712504   0.35971446   -11.347413    1.5761627   520538 
  433000    1.4455743    -11.34868    -11.34868   -9.7744442    0.3456038    -11.34868    1.5742363   520538 
  434000    1.4460426   -11.351643   -11.351643   -9.7768963   0.40683544   -11.351643    1.5747462   520538 
  435000      1.44329   -11.351656   -11.351656   -9.7799073   0.40551379   -11.351656    1.5717487   520538 
  436000     1.442835    -11.35348    -11.35348   -9.7822271   0.35837722    -11.35348    1.5712532   520538 
  437000    1.4417985   -11.354533   -11.354533   -9.7844081   0.32912557   -11.354533    1.5701245   520538 
  438000    1.4392163   -11.354252   -11.354252   -9.7869393   0.35168132   -11.354252    1.5673124   520538 
  439000    1.4397728   -11.356806   -11.356806    -9.788888   0.41506672   -11.356806    1.5679184   520538 
  440000    1.4392226     -11.3594     -11.3594   -9.7920803   0.41057156     -11.3594    1.5673193   520538 
  441000      1.43708   -11.360083   -11.360083   -9.7950965   0.34033349   -11.360083     1.564986   520538 
  442000    1.4355777   -11.361732   -11.361732   -9.7983823   0.36247928   -11.361732    1.5633499   520538 
  443000    1.4357312   -11.364638   -11.364638   -9.8011206   0.37788306   -11.364638    1.5635171   520538 
  444000    1.4345311   -11.365956   -11.365956   -9.8037456   0.39123462   -11.365956    1.5622102   520538 
  445000    1.4313896    -11.36597    -11.36597   -9.8071804   0.36943635    -11.36597    1.5587891   520538 
  446000    1.4322701   -11.369973   -11.369973   -9.8102252   0.36144323   -11.369973     1.559748   520538 
  447000    1.4305073   -11.370078   -11.370078     -9.81225   0.35569211   -11.370078    1.5578282   520538 
  448000    1.4302441   -11.371178   -11.371178   -9.8136364   0.34062861   -11.371178    1.5575417   520538 
  449000     1.428427   -11.373202   -11.373202   -9.8176396   0.34765607   -11.373202    1.5555628   520538 
  450000    1.4272553   -11.373988   -11.373988   -9.8197015   0.35780175   -11.373988    1.5542869   520538 
  451000    1.4281114   -11.377165   -11.377165    -9.821946   0.35148179   -11.377165    1.5552191   520538 
  452000    1.4263087   -11.379149   -11.379149   -9.8258929   0.36357258   -11.379149    1.5532559   520538 
  453000    1.4234719   -11.377909   -11.377909   -9.8277427   0.37811324   -11.377909    1.5501667   520538 
  454000    1.4255632   -11.382605   -11.382605   -9.8301608   0.34522547   -11.382605    1.5524441   520538 
  455000    1.4222693   -11.381258   -11.381258   -9.8324013   0.29841482   -11.381258    1.5488571   520538 
  456000    1.4186361   -11.379496   -11.379496   -9.8345953   0.36042186   -11.379496    1.5449005   520538 
  457000    1.4197845   -11.383901   -11.383901   -9.8377495   0.33431798   -11.383901    1.5461511   520538 
  458000      1.41879   -11.385326   -11.385326   -9.8402578   0.38917984   -11.385326    1.5450681   520538 
  459000    1.4191249   -11.387104   -11.387104   -9.8416717   0.35492122   -11.387104    1.5454328   520538 
  460000    1.4172993   -11.387458   -11.387458    -9.844013   0.37924181   -11.387458    1.5434447   520538 
  461000     1.414359   -11.388107   -11.388107   -9.8478647   0.37686326   -11.388107    1.5402427   520538 
  462000    1.4146844   -11.389615   -11.389615   -9.8490182   0.35717248   -11.389615    1.5405971   520538 
  463000    1.4122428   -11.389403   -11.389403   -9.8514645   0.35382459   -11.389403    1.5379382   520538 
  464000    1.4127227   -11.393081   -11.393081   -9.8546207   0.34254089   -11.393081    1.5384607   520538 
  465000    1.4131533   -11.396343   -11.396343   -9.8574134   0.37737521   -11.396343    1.5389297   520538 
  466000    1.4103565   -11.395882   -11.395882   -9.8599981   0.37147234   -11.395882     1.535884   520538 
  467000    1.4079587   -11.397092   -11.397092   -9.8638197   0.35400044   -11.397092    1.5332727   520538 
  468000    1.4105002   -11.400952   -11.400952   -9.8649115   0.35280206   -11.400952    1.5360404   520538 
  469000    1.4068425   -11.399091   -11.399091   -9.8670338   0.35123261   -11.399091    1.5320572   520538 
  470000    1.4083857   -11.402623   -11.402623   -9.8688853   0.36438193   -11.402623    1.5337377   520538 
  471000    1.4055249    -11.40214    -11.40214   -9.8715173    0.3719219    -11.40214    1.5306223   520538 
  472000     1.405341   -11.403758   -11.403758   -9.8733363   0.34256214   -11.403758     1.530422   520538 
  473000    1.4030344   -11.403672   -11.403672   -9.8757616   0.33627911   -11.403672    1.5279102   520538 
  474000    1.4035177    -11.40629    -11.40629   -9.8778534   0.34375213    -11.40629    1.5284365   520538 
  475000    1.4014828   -11.405566   -11.405566   -9.8793456   0.36145155   -11.405566    1.5262204   520538 
  476000    1.4015189   -11.409004   -11.409004   -9.8827441   0.34032021   -11.409004    1.5262598   520538 
  477000    1.3985073    -11.40883    -11.40883   -9.8858494   0.38737018    -11.40883    1.5229802   520538 
  478000    1.3981035   -11.411826   -11.411826    -9.889286   0.35159446   -11.411826    1.5225404   520538 
  479000    1.3952582   -11.410891   -11.410891   -9.8914491   0.34432689   -11.410891    1.5194419   520538 
  480000    1.3973974   -11.415987   -11.415987   -9.8942158   0.36244846   -11.415987    1.5217715   520538 
  481000    1.3951129   -11.414771   -11.414771   -9.8954875   0.35063796   -11.414771    1.5192836   520538 
  482000    1.3932782   -11.415568   -11.415568   -9.8982824   0.29366534   -11.415568    1.5172856   520538 
  483000    1.3936714   -11.417763   -11.417763   -9.9000496   0.32984395   -11.417763    1.5177138   520538 
  484000    1.3905693   -11.415939   -11.415939    -9.901603   0.31485469   -11.415939    1.5143356   520538 
  485000    1.3914171   -11.418703   -11.418703   -9.9034438   0.31987426   -11.418703    1.5152589   520538 
  486000    1.3886781   -11.418068   -11.418068   -9.9057919   0.32841599   -11.418068    1.5122761   520538 
  487000    1.3894288   -11.420664   -11.420664   -9.9075702   0.31808876   -11.420664    1.5130936   520538 
  488000     1.388954   -11.422343   -11.422343   -9.9097669   0.36492519   -11.422343    1.5125766   520538 
  489000    1.3866856   -11.422034   -11.422034   -9.9119274   0.30834658   -11.422034    1.5101063   520538 
  490000    1.3886488   -11.427658   -11.427658    -9.915414   0.32805907   -11.427658    1.5122442   520538 
  491000    1.3877818   -11.428279   -11.428279    -9.916979   0.39396771   -11.428279    1.5113001   520538 
  492000    1.3851191   -11.428413   -11.428413   -9.9200131   0.30467475   -11.428413    1.5084003   520538 
  493000    1.3826251    -11.42874    -11.42874   -9.9230554   0.36405165    -11.42874    1.5056844   520538 
  494000    1.3825063   -11.430162   -11.430162   -9.9246075   0.35404156   -11.430162     1.505555   520538 
  495000    1.3817024   -11.431603   -11.431603   -9.9269235   0.32894462   -11.431603    1.5046795   520538 
  496000    1.3808946   -11.432355   -11.432355    -9.928555   0.31521968   -11.432355    1.5037998   520538 
  497000    1.3819711   -11.435454   -11.435454   -9.9304821   0.34971133   -11.435454    1.5049722   520538 
  498000    1.3812372   -11.437533   -11.437533   -9.9333596   0.34820633   -11.437533     1.504173   520538 
  499000    1.3791412   -11.437549   -11.437549   -9.9356585   0.30054655   -11.437549    1.5018904   520538 
  500000    1.3753982   -11.436379   -11.436379   -9.9385651   0.35544412   -11.436379    1.4978143   520538 
  501000    1.3754403   -11.438162   -11.438162   -9.9403018   0.36842147   -11.438162    1.4978601   520538 
  502000     1.373818    -11.43778    -11.43778   -9.9416867   0.36565406    -11.43778    1.4960934   520538 
  503000    1.3763338    -11.44298    -11.44298   -9.9441473    0.3492672    -11.44298    1.4988331   520538 
  504000    1.3745154   -11.443083   -11.443083   -9.9462304   0.33145057   -11.443083    1.4968529   520538 
  505000    1.3712853   -11.441789   -11.441789   -9.9484536   0.30729838   -11.441789    1.4933352   520538 
  506000     1.370664   -11.443498   -11.443498   -9.9508398   0.31317027   -11.443498    1.4926586   520538 
  507000    1.3710863   -11.446416   -11.446416   -9.9532971   0.33939327   -11.446416    1.4931186   520538 
  508000    1.3708773   -11.448398   -11.448398   -9.9555067   0.36734054   -11.448398     1.492891   520538 
  509000    1.3662417   -11.446307   -11.446307    -9.958464     0.350957   -11.446307    1.4878428   520538 
  510000    1.3676564   -11.449123   -11.449123   -9.9597398   0.32353697   -11.449123    1.4893834   520538 
  511000    1.3683296    -11.45172    -11.45172   -9.9616031   0.33255778    -11.45172    1.4901165   520538 
  512000    1.3661958   -11.451627   -11.451627   -9.9638346   0.27815936   -11.451627    1.4877927   520538 
  513000    1.3646536   -11.453659   -11.453659   -9.9675457   0.32196135   -11.453659    1.4861133   520538 
  514000    1.3663947   -11.456154   -11.456154   -9.9681442   0.32338092   -11.456154    1.4880094   520538 
  515000    1.3633086   -11.454845   -11.454845   -9.9701968   0.35050259   -11.454845    1.4846486   520538 
  516000    1.3632277   -11.456499   -11.456499   -9.9719382   0.38112615   -11.456499    1.4845605   520538 
  517000    1.3631958   -11.457739   -11.457739   -9.9732132   0.31228812   -11.457739    1.4845258   520538 
  518000    1.3615032   -11.458349   -11.458349   -9.9756669   0.29446164   -11.458349    1.4826826   520538 
  519000    1.3584552   -11.458093   -11.458093   -9.9787298   0.35832586   -11.458093    1.4793632   520538 
  520000    1.3583558   -11.459047   -11.459047   -9.9797916   0.33387127   -11.459047     1.479255   520538 
  521000      1.35762   -11.461018   -11.461018   -9.9825645   0.30766757   -11.461018    1.4784537   520538 
  522000    1.3597564   -11.464766   -11.464766   -9.9839854   0.30636669   -11.464766    1.4807803   520538 
  523000    1.3547439   -11.461134   -11.461134   -9.9858126   0.34199633   -11.461134    1.4753217   520538 
  524000    1.3549894   -11.463483   -11.463483   -9.9878942   0.29926852   -11.463483     1.475589   520538 
  525000    1.3540499   -11.465827   -11.465827   -9.9912615   0.33431689   -11.465827    1.4745659   520538 
  526000    1.3532932   -11.467214   -11.467214   -9.9934726   0.32484213   -11.467214    1.4737418   520538 
  527000    1.3528669   -11.468957   -11.468957   -9.9956796   0.32456033   -11.468957    1.4732776   520538 
  528000    1.3513377   -11.467469   -11.467469   -9.9958569   0.32827776   -11.467469    1.4716123   520538 
  529000    1.3517074   -11.470424   -11.470424   -9.9984092   0.31943451   -11.470424    1.4720149   520538 
  530000    1.3523483   -11.471797   -11.471797   -9.9990842   0.34849272   -11.471797    1.4727128   520538 
  531000    1.3520269   -11.473287   -11.473287   -10.000924   0.31172338   -11.473287    1.4723628   520538 
  532000    1.3493749   -11.473343   -11.473343   -10.003868   0.31783509   -11.473343    1.4694747   520538 
  533000    1.3485142    -11.47395    -11.47395   -10.005413    0.2666497    -11.47395    1.4685374   520538 
  534000    1.3481457   -11.476464   -11.476464   -10.008328   0.26984269   -11.476464    1.4681362   520538 
  535000    1.3468262   -11.476271   -11.476271   -10.009572   0.31404597   -11.476271    1.4666993   520538 
  536000    1.3446711   -11.476539   -11.476539   -10.012187   0.30593808   -11.476539    1.4643522   520538 
  537000    1.3464671   -11.479056   -11.479056   -10.012748   0.28367098   -11.479056    1.4663081   520538 
  538000    1.3450699   -11.479516   -11.479516   -10.014729   0.34924706   -11.479516    1.4647866   520538 
  539000    1.3457116   -11.482298   -11.482298   -10.016813   0.32480512   -11.482298    1.4654854   520538 
  540000    1.3434465   -11.482165   -11.482165   -10.019146   0.28592031   -11.482165    1.4630187   520538 
  541000    1.3424933   -11.483287   -11.483287   -10.021307   0.28365755   -11.483287    1.4619807   520538 
  542000    1.3431283   -11.485564   -11.485564   -10.022892    0.3217907   -11.485564    1.4626722   520538 
  543000    1.3398489   -11.484243   -11.484243   -10.025142   0.28031154   -11.484243    1.4591009   520538 
  544000    1.3401688   -11.486193   -11.486193   -10.026744   0.29978389   -11.486193    1.4594493   520538 
  545000    1.3392364   -11.488331   -11.488331   -10.029897   0.29663913   -11.488331    1.4584338   520538 
  546000    1.3379228   -11.488722   -11.488722   -10.031718   0.33211735   -11.488722    1.4570034   520538 
  547000    1.3387735   -11.491225   -11.491225   -10.033296   0.30130531   -11.491225    1.4579298   520538 
  548000    1.3355741   -11.489975   -11.489975   -10.035529   0.29839072   -11.489975    1.4544456   520538 
  549000    1.3352663   -11.491096   -11.491096   -10.036985   0.29776695   -11.491096    1.4541105   520538 
  550000    1.3353432   -11.493528   -11.493528   -10.039333   0.27880286   -11.493528    1.4541942   520538 
  551000    1.3347599   -11.494447   -11.494447   -10.040888   0.30332715   -11.494447     1.453559   520538 
  552000    1.3346613   -11.496734   -11.496734   -10.043282   0.26576733   -11.496734    1.4534516   520538 
  553000    1.3320461   -11.495989   -11.495989   -10.045385   0.29020497   -11.495989    1.4506037   520538 
  554000    1.3309062    -11.49649    -11.49649   -10.047127   0.31749018    -11.49649    1.4493623   520538 
  555000    1.3314406   -11.498893   -11.498893   -10.048949   0.29942612   -11.498893    1.4499443   520538 
  556000    1.3311058   -11.499929   -11.499929   -10.050349   0.31853249   -11.499929    1.4495796   520538 
  557000    1.3291687   -11.499478   -11.499478   -10.052007   0.32995708   -11.499478    1.4474701   520538 
  558000     1.328738   -11.500418   -11.500418   -10.053417   0.30041386   -11.500418    1.4470011   520538 
  559000    1.3272718   -11.499805   -11.499805     -10.0544   0.29245333   -11.499805    1.4454044   520538 
  560000    1.3283334   -11.502229   -11.502229   -10.055668   0.29769381   -11.502229    1.4465605   520538 
  561000    1.3268739   -11.502723   -11.502723   -10.057752   0.30951587   -11.502723     1.444971   520538 
  562000    1.3255111   -11.503585   -11.503585   -10.060098   0.29421431   -11.503585     1.443487   520538 
  563000     1.324859   -11.506166   -11.506166   -10.063389   0.26559538   -11.506166    1.4427768   520538 
  564000    1.3223876   -11.506026   -11.506026    -10.06594   0.27857662   -11.506026    1.4400855   520538 
  565000    1.3221333   -11.507671   -11.507671   -10.067863   0.28458348   -11.507671    1.4398086   520538 
  566000    1.3234653   -11.511306   -11.511306   -10.070047   0.29953333   -11.511306    1.4412591   520538 
  567000    1.3218365   -11.511533   -11.511533   -10.072048   0.31054896   -11.511533    1.4394853   520538 
  568000    1.3214653   -11.511775   -11.511775   -10.072694   0.28832417   -11.511775     1.439081   520538 
  569000    1.3214103   -11.513021   -11.513021      -10.074   0.24093345   -11.513021    1.4390212   520538 
  570000    1.3201409   -11.513582   -11.513582   -10.075943   0.31674211   -11.513582    1.4376388   520538 
  571000    1.3185242   -11.513587   -11.513587   -10.077709   0.31329972   -11.513587    1.4358782   520538 
  572000    1.3184776   -11.515521   -11.515521   -10.079694   0.28190325   -11.515521    1.4358275   520538 
  573000    1.3157368   -11.513245   -11.513245   -10.080403     0.279349   -11.513245    1.4328427   520538 
  574000    1.3168907   -11.516341   -11.516341   -10.082241    0.2771672   -11.516341    1.4340993   520538 
  575000    1.3151901   -11.517516   -11.517516   -10.085269   0.28733772   -11.517516    1.4322474   520538 
  576000      1.31588   -11.519014   -11.519014   -10.086015   0.28308156   -11.519014    1.4329986   520538 
  577000    1.3148842   -11.519216   -11.519216   -10.087302   0.32419661   -11.519216    1.4319143   520538 
  578000    1.3135214   -11.520826   -11.520826   -10.090396   0.31373929   -11.520826    1.4304301   520538 
  579000    1.3129241   -11.521001   -11.521001   -10.091221   0.27945277   -11.521001    1.4297797   520538 
  580000    1.3149539   -11.524681   -11.524681   -10.092691   0.29003742   -11.524681    1.4319901   520538 
  581000    1.3135658   -11.524627   -11.524627   -10.094148   0.30939466   -11.524627    1.4304785   520538 
  582000     1.312247   -11.525327   -11.525327   -10.096285   0.26114293   -11.525327    1.4290423   520538 
  583000    1.3108718   -11.525757   -11.525757   -10.098213   0.28625811   -11.525757    1.4275447   520538 
  584000    1.3109252   -11.528464   -11.528464   -10.100862   0.29487658   -11.528464    1.4276028   520538 
  585000    1.3087532   -11.527592   -11.527592   -10.102354   0.28552741   -11.527592    1.4252376   520538 
  586000    1.3090654   -11.528764   -11.528764   -10.103186   0.29956652   -11.528764    1.4255776   520538 
  587000    1.3068963   -11.527657   -11.527657   -10.104441   0.30425066   -11.527657    1.4232154   520538 
  588000    1.3040964   -11.526664   -11.526664   -10.106498   0.27256097   -11.526664    1.4201663   520538 
  589000    1.3059749   -11.529529   -11.529529   -10.107317   0.29700418   -11.529529     1.422212   520538 
  590000    1.3052825   -11.531312   -11.531312   -10.109854   0.27354484   -11.531312     1.421458   520538 
  591000    1.3031004   -11.531172   -11.531172   -10.112091   0.26635754   -11.531172    1.4190816   520538 
  592000    1.3053212   -11.534393   -11.534393   -10.112893   0.30584743   -11.534393       1.4215   520538 
  593000    1.3019839   -11.532782   -11.532782   -10.114916   0.29667121   -11.532782    1.4178658   520538 
  594000    1.3004951   -11.533438   -11.533438   -10.117193   0.26901358   -11.533438    1.4162445   520538 
  595000    1.3010636   -11.535621   -11.535621   -10.118757   0.27921136   -11.535621    1.4168636   520538 
  596000    1.3019685   -11.537667   -11.537667   -10.119818   0.28245121   -11.537667     1.417849   520538 
  597000    1.3016034   -11.538282   -11.538282    -10.12083   0.31203041   -11.538282    1.4174514   520538 
  598000    1.3020872   -11.540306   -11.540306   -10.122328    0.2536876   -11.540306    1.4179783   520538 
  599000    1.2993424   -11.539087   -11.539087   -10.124098    0.2897734   -11.539087    1.4149891   520538 
  600000    1.2981776    -11.54048    -11.54048   -10.126759   0.33545967    -11.54048    1.4137207   520538 
  601000    1.2976752   -11.541092   -11.541092   -10.127918   0.29318381   -11.541092    1.4131736   520538 
  602000    1.2979852   -11.543871   -11.543871    -10.13036   0.27116668   -11.543871    1.4135111   520538 
  603000    1.2966484   -11.543603   -11.543603   -10.131548   0.32623084   -11.543603    1.4120554   520538 
  604000     1.295418   -11.543695   -11.543695    -10.13298   0.26522676   -11.543695    1.4107155   520538 
  605000    1.2962701   -11.545509   -11.545509   -10.133866   0.27660104   -11.545509    1.4116434   520538 
  606000    1.2940458   -11.545351   -11.545351   -10.136129    0.2592005   -11.545351    1.4092211   520538 
  607000    1.2948187    -11.54671    -11.54671   -10.136647   0.27379013    -11.54671    1.4100628   520538 
  608000    1.2924181   -11.545812   -11.545812   -10.138364   0.30313128   -11.545812    1.4074485   520538 
  609000    1.2930756   -11.548904   -11.548904   -10.140739   0.29878115   -11.548904    1.4081646   520538 
  610000    1.2913136   -11.549967   -11.549967   -10.143721   0.26401646   -11.549967    1.4062458   520538 
  611000    1.2890536   -11.549124   -11.549124   -10.145339   0.25798147   -11.549124    1.4037846   520538 
  612000    1.2900228   -11.551414   -11.551414   -10.146574   0.30078895   -11.551414      1.40484   520538 
  613000    1.2894621   -11.553176   -11.553176   -10.148947   0.24334793   -11.553176    1.4042295   520538 
  614000    1.2875388   -11.552106   -11.552106   -10.149971   0.27472549   -11.552106     1.402135   520538 
  615000     1.287221   -11.553923   -11.553923   -10.152134   0.30262957   -11.553923    1.4017889   520538 
  616000     1.287592   -11.555598   -11.555598   -10.153405   0.25728755   -11.555598    1.4021929   520538 
  617000     1.287063   -11.556927   -11.556927    -10.15531   0.26108629   -11.556927    1.4016169   520538 
  618000     1.288132   -11.559132   -11.559132   -10.156351   0.28078048   -11.559132     1.402781   520538 
  619000    1.2851513   -11.557221   -11.557221   -10.157686   0.28852588   -11.557221     1.399535   520538 
  620000    1.2839752   -11.557641   -11.557641   -10.159387   0.29733993   -11.557641    1.3982542   520538 
  621000    1.2836138   -11.559476   -11.559476   -10.161615   0.25594494   -11.559476    1.3978606   520538 
  622000    1.2854724   -11.561876   -11.561876   -10.161991   0.25772046   -11.561876    1.3998847   520538 
  623000    1.2845602   -11.563086   -11.563086   -10.164195    0.2614279   -11.563086    1.3988913   520538 
  624000    1.2833851   -11.562984   -11.562984   -10.165372   0.21949669   -11.562984    1.3976116   520538 
  625000    1.2826486   -11.562745   -11.562745   -10.165936   0.33616406   -11.562745    1.3968096   520538 
  626000    1.2801853   -11.562286   -11.562286   -10.168159    0.2320412   -11.562286     1.394127   520538 
  627000    1.2786551   -11.561962   -11.561962   -10.169501   0.25982637   -11.561962    1.3924607   520538 
  628000    1.2801566   -11.564086   -11.564086    -10.16999   0.27457692   -11.564086    1.3940958   520538 
  629000    1.2789646   -11.565072   -11.565072   -10.172274   0.25810354   -11.565072    1.3927977   520538 
  630000    1.2786328   -11.566557   -11.566557   -10.174121   0.25514197   -11.566557    1.3924363   520538 
  631000    1.2777202   -11.567934   -11.567934   -10.176491   0.27612605   -11.567934    1.3914425   520538 
  632000    1.2762088   -11.568179   -11.568179   -10.178383   0.24230826   -11.568179    1.3897965   520538 
  633000     1.277594   -11.571326   -11.571326   -10.180021   0.25603751   -11.571326    1.3913051   520538 
  634000    1.2772277   -11.572215   -11.572215   -10.181309   0.23139586   -11.572215    1.3909062   520538 
  635000    1.2751422   -11.571349   -11.571349   -10.182714   0.26635657   -11.571349     1.388635   520538 
  636000    1.2752914   -11.572785   -11.572785   -10.183988   0.24732957   -11.572785    1.3887975   520538 
  637000    1.2735211   -11.572151   -11.572151   -10.185281   0.24035313   -11.572151    1.3868696   520538 
  638000    1.2736836   -11.573843   -11.573843   -10.186797   0.26324703   -11.573843    1.3870466   520538 
  639000    1.2723153    -11.57444    -11.57444   -10.188883    0.2682142    -11.57444    1.3855565   520538 
  640000    1.2723281   -11.575957   -11.575957   -10.190387   0.28317933   -11.575957    1.3855705   520538 
  641000    1.2709642   -11.576373   -11.576373   -10.192288   0.27143957   -11.576373    1.3840852   520538 
  642000    1.2708256   -11.577614   -11.577614    -10.19368   0.24550046   -11.577614    1.3839342   520538 
  643000     1.271421   -11.580235   -11.580235   -10.195652   0.25016549   -11.580235    1.3845826   520538 
  644000    1.2692832   -11.579563   -11.579563   -10.197308   0.25758546   -11.579563    1.3822546   520538 
  645000    1.2685657   -11.579875   -11.579875   -10.198402   0.26206884   -11.579875    1.3814732   520538 
  646000    1.2687635    -11.58063    -11.58063   -10.198941   0.28012418    -11.58063    1.3816886   520538 
  647000    1.2656579   -11.580137   -11.580137   -10.201831   0.24359811   -11.580137    1.3783066   520538 
  648000    1.2667835   -11.582141   -11.582141   -10.202609   0.26735872   -11.582141    1.3795324   520538 
[...]
 2943000     1.016751   -12.109592   -12.109592   -11.002346  0.052992174   -12.109592     1.107246   520538 
 2944000    1.0155673   -12.108676   -12.108676   -11.002719   0.14828583   -12.108676     1.105957   520538 
 2945000    1.0178708   -12.111953   -12.111953   -11.003487  0.065385907   -12.111953    1.1084655   520538 
 2946000    1.0164604   -12.108863   -12.108863   -11.001933   0.10132606   -12.108863    1.1069295   520538 
 2947000      1.01789   -12.110703   -12.110703   -11.002217  0.080627711   -12.110703    1.1084864   520538 
 2948000    1.0174514   -12.111297   -12.111297   -11.003288   0.11520905   -12.111297    1.1080087   520538 
 2949000    1.0186211   -12.112694   -12.112694   -11.003412    0.0726976   -12.112694    1.1092825   520538 
 2950000    1.0168283   -12.110312   -12.110312   -11.002982    0.1077722   -12.110312    1.1073301   520538 
 2951000    1.0166046   -12.110685   -12.110685   -11.003598   0.08364551   -12.110685    1.1070865   520538 
 2952000    1.0146257   -12.109062   -12.109062    -11.00413   0.10705631   -12.109062    1.1049315   520538 
 2953000    1.0145659    -12.10888    -12.10888   -11.004014   0.11284561    -12.10888    1.1048664   520538 
 2954000    1.0160934   -12.110423   -12.110423   -11.003893  0.089441198   -12.110423    1.1065298   520538 
 2955000    1.0171607   -12.111165   -12.111165   -11.003473  0.061249252   -12.111165    1.1076921   520538 
 2956000    1.0162098   -12.110466   -12.110466   -11.003809  0.072752096   -12.110466    1.1066566   520538 
 2957000    1.0168131     -12.1106     -12.1106   -11.003287  0.091861393     -12.1106    1.1073136   520538 
 2958000    1.0161209   -12.109531   -12.109531   -11.002971  0.074735889   -12.109531    1.1065598   520538 
 2959000    1.0173062   -12.110646   -12.110646   -11.002795   0.11240917   -12.110646    1.1078506   520538 
 2960000    1.0186163   -12.111336   -12.111336   -11.002059  0.074942443   -12.111336    1.1092773   520538 
 2961000    1.0170128   -12.108658   -12.108658   -11.001127  0.091370966   -12.108658     1.107531   520538 
 2962000    1.0171928   -12.109789   -12.109789   -11.002061  0.061792271   -12.109789    1.1077271   520538 
 2963000    1.0169236   -12.109932   -12.109932   -11.002498  0.073318442   -12.109932     1.107434   520538 
 2964000    1.0159724     -12.1086     -12.1086   -11.002202  0.091001569     -12.1086    1.1063981   520538 
 2965000    1.0165184   -12.109642   -12.109642   -11.002649  0.055582054   -12.109642    1.1069927   520538 
 2966000    1.0174273   -12.110691   -12.110691   -11.002708  0.085154185   -12.110691    1.1079824   520538 
 2967000    1.0155368   -12.108487   -12.108487   -11.002563   0.10285586   -12.108487    1.1059237   520538 
 2968000    1.0156958   -12.108721   -12.108721   -11.002624   0.10399125   -12.108721    1.1060969   520538 
 2969000    1.0160463   -12.108592   -12.108592   -11.002114   0.11253722   -12.108592    1.1064786   520538 
 2970000    1.0157585   -12.109566   -12.109566   -11.003401  0.095169335   -12.109566    1.1061652   520538 
 2971000     1.015969   -12.109433   -12.109433   -11.003038  0.088030751   -12.109433    1.1063943   520538 
 2972000    1.0162993   -12.108861   -12.108861   -11.002107  0.078619305   -12.108861    1.1067541   520538 
 2973000    1.0172049   -12.109914   -12.109914   -11.002173  0.065247676   -12.109914    1.1077403   520538 
 2974000    1.0156563   -12.108758   -12.108758   -11.002704  0.084820272   -12.108758    1.1060539   520538 
 2975000    1.0170478   -12.110012   -12.110012   -11.002443   0.11538521   -12.110012    1.1075691   520538 
 2976000    1.0143236   -12.108922   -12.108922   -11.004319  0.055849217   -12.108922    1.1046026   520538 
 2977000     1.017199   -12.112101   -12.112101   -11.004367  0.088992465   -12.112101    1.1077338   520538 
 2978000    1.0173132   -12.112377   -12.112377   -11.004519  0.091678948   -12.112377    1.1078582   520538 
 2979000    1.0172505   -12.112077   -12.112077   -11.004287   0.11618989   -12.112077    1.1077899   520538 
 2980000    1.0159891   -12.111166   -12.111166    -11.00475  0.052239666   -12.111166    1.1064163   520538 
 2981000    1.0154143   -12.110662   -12.110662   -11.004872  0.081908087   -12.110662    1.1057903   520538 
 2982000    1.0157529   -12.111429   -12.111429    -11.00527  0.079800757   -12.111429     1.106159   520538 
 2983000    1.0159359   -12.110768   -12.110768    -11.00441   0.10835555   -12.110768    1.1063584   520538 
 2984000    1.0150943   -12.109777   -12.109777   -11.004335   0.10239624   -12.109777    1.1054419   520538 
 2985000    1.0149754     -12.1096     -12.1096   -11.004288  0.067709397     -12.1096    1.1053124   520538 
 2986000    1.0159978   -12.110581   -12.110581   -11.004155  0.072712838   -12.110581    1.1064258   520538 
 2987000    1.0157745   -12.110027   -12.110027   -11.003844  0.083063672   -12.110027    1.1061826   520538 
 2988000    1.0174701   -12.110552   -12.110552   -11.002523  0.091767274   -12.110552    1.1080291   520538 
 2989000    1.0147528   -12.108024   -12.108024   -11.002954  0.081909099   -12.108024    1.1050699   520538 
 2990000    1.0185762   -12.110861   -12.110861   -11.001628   0.12315819   -12.110861    1.1092336   520538 
 2991000    1.0171971   -12.109701   -12.109701    -11.00197  0.083301465   -12.109701    1.1077318   520538 
 2992000    1.0180042   -12.110055   -12.110055   -11.001444     0.117548   -12.110055    1.1086107   520538 
 2993000    1.0171241   -12.110162   -12.110162    -11.00251  0.086580693   -12.110162    1.1076523   520538 
 2994000    1.0170625   -12.109665   -12.109665    -11.00208  0.079504129   -12.109665    1.1075852   520538 
 2995000    1.0171882   -12.110307   -12.110307   -11.002585   0.09616094   -12.110307    1.1077221   520538 
 2996000    1.0172811   -12.109362   -12.109362   -11.001539  0.094153311   -12.109362    1.1078232   520538 
 2997000     1.020182   -12.113178   -12.113178   -11.002195   0.12843755   -12.113178    1.1109824   520538 
 2998000    1.0185632      -12.111      -12.111    -11.00178  0.097329487      -12.111    1.1092195   520538 
 2999000    1.0167239   -12.109547   -12.109547    -11.00233   0.12177163   -12.109547    1.1072165   520538 
 3000000    1.0169583   -12.110633   -12.110633   -11.003161   0.12878844   -12.110633    1.1074717   520538 
 3001000    1.0175883   -12.111282   -12.111282   -11.003125  0.097198668   -12.111282    1.1081578   520538 
 3002000    1.0162057   -12.109826   -12.109826   -11.003174  0.082466841   -12.109826    1.1066522   520538 
 3003000    1.0172204    -12.11046    -12.11046   -11.002703  0.076592084    -12.11046    1.1077572   520538 
 3004000    1.0175353   -12.111346   -12.111346   -11.003246  0.092866347   -12.111346    1.1081001   520538 
 3005000    1.0176243   -12.111621   -12.111621   -11.003424   0.14318252   -12.111621     1.108197   520538 
 3006000     1.018477   -12.112296   -12.112296   -11.003171  0.092552249   -12.112296    1.1091256   520538 
 3007000    1.0161534   -12.109303   -12.109303   -11.002708  0.064994642   -12.109303    1.1065951   520538 
 3008000    1.0176019   -12.111787   -12.111787   -11.003614   0.10429536   -12.111787    1.1081727   520538 
 3009000    1.0162898   -12.110656   -12.110656   -11.003912  0.077245475   -12.110656    1.1067437   520538 
 3010000     1.016704   -12.111746   -12.111746   -11.004551  0.092049018   -12.111746    1.1071947   520538 
 3011000    1.0162285   -12.111132   -12.111132   -11.004455  0.056768942   -12.111132    1.1066769   520538 
 3012000    1.0153372   -12.109442   -12.109442   -11.003736   0.10172728   -12.109442    1.1057063   520538 
 3013000    1.0169795   -12.110823   -12.110823   -11.003329  0.054310221   -12.110823    1.1074948   520538 
 3014000    1.0147452   -12.108653   -12.108653   -11.003591    0.1201876   -12.108653    1.1050616   520538 
 3015000    1.0149111   -12.108598   -12.108598   -11.003355   0.13453682   -12.108598    1.1052423   520538 
 3016000    1.0173174   -12.112249   -12.112249   -11.004386  0.061307665   -12.112249    1.1078628   520538 
 3017000     1.015255    -12.10991    -12.10991   -11.004293   0.10534809    -12.10991    1.1056168   520538 
 3018000    1.0161668   -12.111376   -12.111376   -11.004766  0.089412871   -12.111376    1.1066097   520538 
 3019000    1.0168152   -12.112191   -12.112191   -11.004876  0.067577553   -12.112191    1.1073159   520538 
 3020000    1.0166383   -12.111489   -12.111489   -11.004366  0.087289849   -12.111489    1.1071233   520538 
 3021000     1.019158   -12.115293   -12.115293   -11.005425   0.11049864   -12.115293    1.1098672   520538 
 3022000    1.0160148   -12.110202   -12.110202   -11.003758  0.072012621   -12.110202    1.1064443   520538 
 3023000    1.0172557   -12.111455   -12.111455    -11.00366  0.093418681   -12.111455    1.1077955   520538 
 3024000    1.0173979   -12.111227   -12.111227   -11.003277  0.090346859   -12.111227    1.1079504   520538 
 3025000    1.0169827   -12.110971   -12.110971   -11.003473  0.084399927   -12.110971    1.1074983   520538 
 3026000    1.0169952   -12.111428   -12.111428   -11.003916   0.11494523   -12.111428    1.1075119   520538 
 3027000    1.0181873   -12.113027   -12.113027   -11.004217  0.097722924   -12.113027    1.1088101   520538 
 3028000    1.0173758   -12.112028   -12.112028   -11.004102   0.11716697   -12.112028    1.1079264   520538 
 3029000    1.0165928   -12.110932   -12.110932   -11.003858  0.099683289   -12.110932    1.1070737   520538 
 3030000    1.0159462   -12.110841   -12.110841   -11.004471  0.088413157   -12.110841    1.1063696   520538 
 3031000    1.0162845   -12.111302   -12.111302   -11.004564  0.080246233   -12.111302    1.1067379   520538 
 3032000    1.0152705   -12.110186   -12.110186   -11.004552   0.10371807   -12.110186    1.1056337   520538 
 3033000    1.0154578   -12.110387   -12.110387   -11.004549   0.13565862   -12.110387    1.1058377   520538 
 3034000    1.0157395   -12.110976   -12.110976   -11.004831  0.063117023   -12.110976    1.1061445   520538 
 3035000    1.0170056   -12.113866   -12.113866   -11.006343  0.091902202   -12.113866    1.1075232   520538 
 3036000    1.0172476   -12.114175   -12.114175   -11.006388  0.062925671   -12.114175    1.1077868   520538 
 3037000    1.0177394   -12.114971   -12.114971   -11.006649   0.10571365   -12.114971    1.1083224   520538 
 3038000    1.0178044   -12.114232   -12.114232   -11.005839   0.11074817   -12.114232    1.1083931   520538 
 3039000    1.0164197   -12.112863   -12.112863   -11.005978   0.10214966   -12.112863    1.1068852   520538 
 3040000    1.0163264   -12.111737   -12.111737   -11.004954   0.10793935   -12.111737    1.1067835   520538 
 3041000    1.0162907   -12.112009   -12.112009   -11.005264   0.06922416   -12.112009    1.1067447   520538 
 3042000    1.0180171   -12.113196   -12.113196   -11.004571  0.084183563   -12.113196    1.1086247   520538 
 3043000    1.0164141   -12.110712   -12.110712   -11.003833  0.082025004   -12.110712    1.1068791   520538 
 3044000    1.0168184   -12.112361   -12.112361   -11.005041  0.097117231   -12.112361    1.1073194   520538 
 3045000    1.0160539   -12.111428   -12.111428   -11.004941  0.093151364   -12.111428    1.1064868   520538 
 3046000    1.0167637   -12.111958   -12.111958   -11.004698  0.098901276   -12.111958    1.1072598   520538 
 3047000    1.0145726   -12.110883   -12.110883   -11.006009  0.090881825   -12.110883    1.1048737   520538 
 3048000    1.0166476   -12.112984   -12.112984    -11.00585   0.12973268   -12.112984    1.1071333   520538 
 3049000    1.0166825   -12.113249   -12.113249   -11.006077   0.08522748   -12.113249    1.1071714   520538 
 3050000    1.0155419   -12.112889   -12.112889    -11.00696   0.08842495   -12.112889    1.1059292   520538 
 3051000    1.0156553   -12.113209   -12.113209   -11.007156  0.085289845   -12.113209    1.1060528   520538 
 3052000    1.0160982   -12.113752   -12.113752   -11.007217   0.10118047   -12.113752     1.106535   520538 
 3053000    1.0153743   -12.113345   -12.113345   -11.007599  0.072270328   -12.113345    1.1057468   520538 
 3054000    1.0157611   -12.112992   -12.112992   -11.006824   0.13819733   -12.112992    1.1061679   520538 
 3055000    1.0155242   -12.112827   -12.112827   -11.006917  0.079764863   -12.112827      1.10591   520538 
 3056000     1.016396    -12.11438    -12.11438    -11.00752  0.084154171    -12.11438    1.1068594   520538 
 3057000    1.0160888   -12.114599   -12.114599   -11.008075  0.078090913   -12.114599    1.1065248   520538 
 3058000    1.0153069   -12.114968   -12.114968   -11.009295  0.081771056   -12.114968    1.1056733   520538 
 3059000    1.0151615   -12.115856   -12.115856   -11.010341  0.055587858   -12.115856     1.105515   520538 
 3060000    1.0159803   -12.115133   -12.115133   -11.008726  0.097272874   -12.115133    1.1064067   520538 
 3061000    1.0155106   -12.115165   -12.115165    -11.00927  0.083787823   -12.115165    1.1058952   520538 
 3062000    1.0150097   -12.114174   -12.114174   -11.008825  0.086163384   -12.114174    1.1053497   520538 
 3063000    1.0136685   -12.113184   -12.113184   -11.009295   0.09345352   -12.113184    1.1038891   520538 
 3064000    1.0154175   -12.114075   -12.114075   -11.008281  0.091007816   -12.114075    1.1057938   520538 
 3065000    1.0163201   -12.115781   -12.115781   -11.009004   0.10824475   -12.115781    1.1067768   520538 
 3066000    1.0162948   -12.116378   -12.116378   -11.009629  0.064471935   -12.116378    1.1067492   520538 
 3067000    1.0161573    -12.11612    -12.11612    -11.00952   0.10193809    -12.11612    1.1065994   520538 
 3068000    1.0165615   -12.116362   -12.116362   -11.009323  0.096768669   -12.116362    1.1070396   520538 
 3069000    1.0139511   -12.112981   -12.112981   -11.008784  0.099254432   -12.112981    1.1041968   520538 
 3070000    1.0162624   -12.115014   -12.115014     -11.0083  0.056765603   -12.115014    1.1067139   520538 
 3071000    1.0159146   -12.114413   -12.114413   -11.008078  0.096298656   -12.114413    1.1063352   520538 
 3072000    1.0163815   -12.114305   -12.114305   -11.007462    0.1016095   -12.114305    1.1068436   520538 
 3073000     1.015596   -12.113974   -12.113974   -11.007985   0.10994655   -12.113974    1.1059882   520538 
 3074000    1.0161581   -12.114542   -12.114542   -11.007942   0.11974522   -12.114542    1.1066004   520538 
 3075000    1.0163486   -12.115243   -12.115243   -11.008435   0.10140307   -12.115243    1.1068078   520538 
 3076000    1.0163323   -12.114221   -12.114221   -11.007431  0.085584472   -12.114221      1.10679   520538 
 3077000    1.0178579    -12.11517    -12.11517   -11.006719  0.090681561    -12.11517    1.1084514   520538 
 3078000    1.0192056    -12.11811    -12.11811   -11.008191  0.051815328    -12.11811     1.109919   520538 
 3079000    1.0175534   -12.116464   -12.116464   -11.008345  0.094672953   -12.116464    1.1081198   520538 
 3080000    1.0164557   -12.115284   -12.115284    -11.00836    0.0719573   -12.115284    1.1069244   520538 
 3081000    1.0182326   -12.115835   -12.115835   -11.006976  0.099620777   -12.115835    1.1088594   520538 
 3082000    1.0170673   -12.115612   -12.115612   -11.008021   0.10865764   -12.115612    1.1075905   520538 
 3083000    1.0186386   -12.117042   -12.117042    -11.00774  0.094023028   -12.117042    1.1093016   520538 
 3084000     1.017875    -12.11605    -12.11605    -11.00758  0.056866321    -12.11605    1.1084701   520538 
 3085000    1.0185555   -12.117402   -12.117402   -11.008191   0.09444059   -12.117402    1.1092111   520538 
 3086000    1.0177896   -12.117065   -12.117065   -11.008688  0.075992044   -12.117065     1.108377   520538 
 3087000    1.0161108   -12.116082   -12.116082   -11.009534  0.094978894   -12.116082    1.1065488   520538 
 3088000    1.0149867   -12.114496   -12.114496   -11.009172   0.11273217   -12.114496    1.1053246   520538 
 3089000    1.0162804    -12.11665    -12.11665   -11.009916   0.10514332    -12.11665    1.1067335   520538 
 3090000     1.016069    -12.11723    -12.11723   -11.010727   0.12009572    -12.11723    1.1065033   520538 
 3091000    1.0170719   -12.118109   -12.118109   -11.010514   0.10757906   -12.118109    1.1075954   520538 
 3092000    1.0165677   -12.117005   -12.117005   -11.009959  0.055458932   -12.117005    1.1070463   520538 
 3093000    1.0150017   -12.115322   -12.115322   -11.009981   0.14559257   -12.115322     1.105341   520538 
 3094000    1.0170813   -12.116465   -12.116465   -11.008859  0.077854566   -12.116465    1.1076056   520538 
 3095000    1.0161284   -12.115845   -12.115845   -11.009277  0.083813219   -12.115845    1.1065679   520538 
 3096000    1.0168903   -12.116889   -12.116889   -11.009491  0.085029157   -12.116889    1.1073977   520538 
 3097000    1.0180999   -12.117721   -12.117721   -11.009006  0.070273639   -12.117721     1.108715   520538 
 3098000    1.0163934    -12.11614    -12.11614   -11.009283  0.087912726    -12.11614    1.1068565   520538 
 3099000    1.0174855   -12.116551   -12.116551   -11.008505  0.094704154   -12.116551    1.1080458   520538 
 3100000    1.0139416   -12.112826   -12.112826    -11.00864   0.10622852   -12.112826    1.1041865   520538 
 3101000    1.0165398   -12.116781   -12.116781   -11.009765  0.082493236   -12.116781     1.107016   520538 
 3102000    1.0161559   -12.115554   -12.115554   -11.008956   0.13003242   -12.115554    1.1065979   520538 
 3103000     1.017222   -12.116826   -12.116826   -11.009067  0.080206042   -12.116826    1.1077589   520538 
 3104000    1.0177144   -12.117082   -12.117082   -11.008787  0.088622427   -12.117082    1.1082951   520538 
 3105000    1.0171278   -12.116571   -12.116571   -11.008915  0.068007858   -12.116571    1.1076563   520538 
 3106000    1.0167931   -12.116015   -12.116015   -11.008723  0.085928904   -12.116015    1.1072918   520538 
 3107000    1.0165535   -12.116595   -12.116595   -11.009564   0.11010648   -12.116595    1.1070309   520538 
 3108000    1.0141854   -12.114561   -12.114561   -11.010109  0.096152896   -12.114561     1.104452   520538 
 3109000    1.0164163   -12.117488   -12.117488   -11.010606   0.10737843   -12.117488    1.1068814   520538 
 3110000    1.0176183   -12.119652   -12.119652   -11.011461   0.10437703   -12.119652    1.1081904   520538 
 3111000    1.0169724   -12.117984   -12.117984   -11.010497  0.063828988   -12.117984    1.1074871   520538 
 3112000    1.0158132   -12.116878   -12.116878   -11.010653  0.044762989   -12.116878    1.1062247   520538 
 3113000     1.016879   -12.117457   -12.117457   -11.010072   0.12060601   -12.117457    1.1073854   520538 
 3114000    1.0160977   -12.116235   -12.116235   -11.009701   0.12086924   -12.116235    1.1065345   520538 
 3115000    1.0179576   -12.119391   -12.119391   -11.010831  0.077661867   -12.119391      1.10856   520538 
 3116000    1.0182913   -12.118662   -12.118662   -11.009739   0.10044466   -12.118662    1.1089233   520538 
 3117000    1.0162153   -12.116962   -12.116962   -11.010299  0.084973081   -12.116962    1.1066627   520538 
 3118000    1.0158338   -12.116592   -12.116592   -11.010345   0.10061683   -12.116592    1.1062472   520538 
 3119000    1.0152168   -12.116539   -12.116539   -11.010964  0.083123945   -12.116539    1.1055752   520538 
 3120000    1.0162434   -12.117843   -12.117843   -11.011149  0.087764834   -12.117843    1.1066931   520538 
 3121000     1.015647   -12.118046   -12.118046   -11.012002  0.063326478   -12.118046    1.1060438   520538 
 3122000    1.0154189   -12.116825   -12.116825    -11.01103  0.074913007   -12.116825    1.1057954   520538 
 3123000    1.0159051   -12.118193   -12.118193   -11.011869  0.078683545   -12.118193    1.1063248   520538 
 3124000    1.0136384 