#LAMMPS data file for empty space
0 atoms
0 atom types
0 160 xlo xhi
0 160 ylo yhi
0 320 zlo zhi
