LAMMPS (3 Mar 2020)
  using 1 OpenMP thread(s) per MPI task
Created orthogonal box = (0 0 0) to (160 160 160)
  4 by 4 by 4 MPI processor grid
Lattice spacing in x,y,z = 1 1 1
Created 4096000 atoms
  create_atoms CPU = 0.152244 secs
4096000 atoms in group solvent
  orthogonal box = (0 0 0) to (160 160 320)
  2 by 4 by 8 MPI processor grid
  0 = max # of 1-2 neighbors
  0 = max # of 1-3 neighbors
  0 = max # of 1-4 neighbors
  1 = max # of special neighbors
  special bonds CPU = 1.41437 secs
  read_data CPU = 1.51672 secs
Neighbor list info ...
  update every 1 steps, delay 10 steps, check yes
  max neighbors/atom: 2000, page size: 100000
  master list distance cutoff = 4.8
  ghost atom cutoff = 4.8
  binsize = 2.4, bins = 67 67 134
  1 neighbor lists, perpetual/occasional/extra = 1 0 0
  (1) pair lj/cut/opt, perpetual
      attributes: half, newton on
      pair build: half/bin/newton
      stencil: half/bin/3d/newton
      bin: standard
  rebalancing time: 0.0791224 seconds
  iteration count = 5
  initial/final max load/proc = 128000 80000
  initial/final imbalance factor = 2 1.25
  x cuts: 0 0.5 1
  y cuts: 0 0.25 0.5 0.75 1
  z cuts: 0 0.0625 0.128906 0.1875 0.257812 0.308594 0.386719 0.4375 1
WARNING: Ignoring 'compress yes' for molecular system (src/delete_atoms.cpp:125)
Deleted 51200 atoms, new total = 4044800
dynamic group thermo defined
New timer settings: style=full  mode=nosync  timeout=off
Per MPI rank memory allocation (min/avg/max) = 93.98 | 120.4 | 134.3 Mbytes
Step Temp E_pair E_vdwl TotEng Press PotEng KinEng Volume 
       0   0.99995227   -4.1808538   -4.1808538   -2.6809257    8.4895986   -4.1808538     1.499928      8192000 
    1000    1.6044518   -5.3398586   -5.3398586   -2.9331814    5.3487727   -5.3398586    2.4066772      8192000 
    2000    1.6113029   -5.3912052   -5.3912052   -2.9742514    4.5748875   -5.3912052    2.4169538      8192000 
    3000    1.6186438   -5.4348431   -5.4348431    -3.006878    3.8374968   -5.4348431    2.4279651      8192000 
    4000    1.6153596   -5.4600438   -5.4600438   -3.0370049    3.1648986   -5.4600438    2.4230388      8192000 
    5000    1.6108084   -5.4789803   -5.4789803   -3.0627683    2.5237615   -5.4789803     2.416212      8192000 
    6000    1.6118811   -5.4921973   -5.4921973   -3.0743762    1.8954795   -5.4921973     2.417821      8192000 
    7000    1.6062694   -5.4766048   -5.4766048   -3.0672013    1.3499394   -5.4766048    2.4094035      8192000 
    8000    1.5837323    -5.428427    -5.428427   -3.0528293    0.9174315    -5.428427    2.3755978      8192000 
    9000    1.5468242   -5.3578695   -5.3578695   -3.0376338   0.59943181   -5.3578695    2.3202357      8192000 
   10000    1.5040763   -5.2801738   -5.2801738   -3.0240599   0.37040472   -5.2801738    2.2561139      8192000 
   11000     1.460902   -5.2030787   -5.2030787   -3.0117262   0.21931111   -5.2030787    2.1913525      8192000 
   12000    1.4239467    -5.137228    -5.137228   -3.0013085   0.14134117    -5.137228    2.1359196      8192000 
   13000    1.4080495   -5.1056797   -5.1056797    -2.993606   0.14466558   -5.1056797    2.1120737      8192000 
   14000    1.4181896   -5.1149784   -5.1149784   -2.9876945    0.2218193   -5.1149784    2.1272839      8192000 
   15000    1.4269918   -5.1235983   -5.1235983   -2.9831111   0.28294698   -5.1235983    2.1404872      8192000 
   16000    1.4283322   -5.1218369   -5.1218369   -2.9793391   0.28450256   -5.1218369    2.1424978      8192000 
   17000    1.4266353   -5.1172132   -5.1172132   -2.9772608   0.27498935   -5.1172132    2.1399524      8192000 
   18000    1.4284473   -5.1169925   -5.1169925    -2.974322   0.27787384   -5.1169925    2.1426704      8192000 
   19000    1.4315723   -5.1186168   -5.1186168   -2.9712589   0.29343638   -5.1186168    2.1473579      8192000 
   20000    1.4348867   -5.1208594   -5.1208594   -2.9685299    0.3082886   -5.1208594    2.1523295      8192000 
   21000    1.4390256   -5.1240333   -5.1240333   -2.9654953   0.32306911   -5.1240333    2.1585379      8192000 
   22000    1.4444904   -5.1293408   -5.1293408   -2.9626057   0.34147375   -5.1293408    2.1667351      8192000 
   23000     1.451377   -5.1369327   -5.1369327   -2.9598677   0.37211392   -5.1369327     2.177065      8192000 
   24000     1.459046   -5.1458258   -5.1458258   -2.9572573   0.40875155   -5.1458258    2.1885685      8192000 
   25000    1.4664166   -5.1538691   -5.1538691   -2.9542448   0.44551215   -5.1538691    2.1996243      8192000 
   26000    1.4713639    -5.159001    -5.159001   -2.9519558   0.47240865    -5.159001    2.2070452      8192000 
   27000     1.473501   -5.1595519   -5.1595519    -2.949301   0.48194123   -5.1595519    2.2102509      8192000 
   28000    1.4747642   -5.1588876   -5.1588876   -2.9467419   0.48499852   -5.1588876    2.2121458      8192000 
   29000    1.4728307   -5.1537931   -5.1537931   -2.9445477    0.4795894   -5.1537931    2.2092455      8192000 
   30000    1.4701798   -5.1479567   -5.1479567   -2.9426875   0.46323498   -5.1479567    2.2052692      8192000 
   31000    1.4663098   -5.1396187   -5.1396187   -2.9401546   0.43908618   -5.1396187    2.1994641      8192000 
   32000    1.4602964   -5.1285508   -5.1285508   -2.9381067   0.40625398   -5.1285508     2.190444      8192000 
   33000     1.454078   -5.1169457   -5.1169457   -2.9358293   0.37274363   -5.1169457    2.1811164      8192000 
   34000    1.4477946    -5.105144    -5.105144   -2.9334525   0.34398547    -5.105144    2.1716914      8192000 
   35000     1.442033   -5.0945879   -5.0945879   -2.9315389   0.32361012   -5.0945879    2.1630489      8192000 
   36000     1.438383   -5.0872517   -5.0872517   -2.9296778   0.30621331   -5.0872517    2.1575739      8192000 
   37000    1.4365701    -5.082128    -5.082128   -2.9272734   0.30598095    -5.082128    2.1548546      8192000 
   38000    1.4387159    -5.085208    -5.085208   -2.9271346   0.43341763    -5.085208    2.1580734      8192000 
   39000    1.4431062   -5.0903561   -5.0903561   -2.9256973    0.8378981   -5.0903561    2.1646588      8192000 
   40000    1.4512027   -5.1007659   -5.1007659   -2.9239625    1.2414265   -5.1007659    2.1768035      8192000 
   41000    1.4558268    -5.105488    -5.105488   -2.9217484    1.6705876    -5.105488    2.1837397      8192000 
   42000    1.4548549   -5.1022335   -5.1022335   -2.9199518    2.1247468   -5.1022335    2.1822818      8192000 
   43000    1.4539617   -5.0991412   -5.0991412   -2.9181991    2.5775455   -5.0991412    2.1809421      8192000 
   44000    1.4573922   -5.1029426   -5.1029426   -2.9168548    2.7112524   -5.1029426    2.1860878      8192000 
   45000     1.456477   -5.0996482   -5.0996482   -2.9149333       2.4863   -5.0996482    2.1847149      8192000 
   46000    1.4585128     -5.10084     -5.10084   -2.9130713    2.2110483     -5.10084    2.1877687      8192000 
   47000    1.4607843    -5.102291    -5.102291   -2.9111151    1.9125212    -5.102291     2.191176      8192000 
   48000     1.457775   -5.0958345   -5.0958345   -2.9091725    1.5972735   -5.0958345     2.186662      8192000 
   49000    1.4453809   -5.0748638   -5.0748638    -2.906793    1.3107434   -5.0748638    2.1680708      8192000 
   50000    1.4230106    -5.040102    -5.040102   -2.9055867     1.058696    -5.040102    2.1345153      8192000 
   51000    1.3960702   -4.9976843   -4.9976843   -2.9035794    0.8586887   -4.9976843    2.0941048      8192000 
   52000    1.3656256   -4.9502644   -4.9502644   -2.9018265   0.69497845   -4.9502644    2.0484378      8192000 
   53000     1.333679   -4.9007136   -4.9007136   -2.9001956   0.56026382   -4.9007136     2.000518      8192000 
   54000    1.3028163   -4.8530455   -4.8530455   -2.8988215   0.45352599   -4.8530455     1.954224      8192000 
   55000     1.276358   -4.8115603   -4.8115603   -2.8970238   0.38501893   -4.8115603    1.9145366      8192000 
   56000    1.2566601   -4.7810183   -4.7810183   -2.8960286   0.37450299   -4.7810183    1.8849896      8192000 
   57000    1.2446533   -4.7615054   -4.7615054   -2.8945259    0.4238503   -4.7615054    1.8669795      8192000 
   58000    1.2376902    -4.749798    -4.749798   -2.8932631   0.48807386    -4.749798    1.8565349      8192000 
   59000    1.2342922   -4.7433973   -4.7433973   -2.8919595   0.51617332   -4.7433973    1.8514378      8192000 
   60000    1.2333136   -4.7402736   -4.7402736   -2.8903037   0.50652521   -4.7402736    1.8499699      8192000 
   61000    1.2323765   -4.7382762   -4.7382762   -2.8897119   0.49546668   -4.7382762    1.8485642      8192000 
   62000    1.2324404   -4.7369315   -4.7369315   -2.8882714    0.5069705   -4.7369315    1.8486601      8192000 
   63000    1.2320461    -4.735001    -4.735001   -2.8869322   0.54029456    -4.735001    1.8480687      8192000 
   64000    1.2301746   -4.7311652   -4.7311652   -2.8859038   0.59089719   -4.7311652    1.8452614      8192000 
   65000    1.2259427    -4.723292    -4.723292   -2.8843784   0.64567109    -4.723292    1.8389136      8192000 
   66000    1.2219669   -4.7163648   -4.7163648   -2.8834149   0.69922051   -4.7163648    1.8329499      8192000 
   67000    1.2212132   -4.7140619   -4.7140619   -2.8822425   0.73390374   -4.7140619    1.8318194      8192000 
   68000    1.2168367   -4.7057145   -4.7057145   -2.8804599   0.70305451   -4.7057145    1.8252546      8192000 
   69000    1.1944661   -4.6709404   -4.6709404   -2.8792417   0.52665242   -4.6709404    1.7916987      8192000 
   70000    1.1681327   -4.6305339   -4.6305339   -2.8783353   0.36890843   -4.6305339    1.7521986      8192000 
   71000    1.1416247   -4.5892489   -4.5892489   -2.8768123   0.24010558   -4.5892489    1.7124366      8192000 
   72000    1.1177322   -4.5520249   -4.5520249   -2.8754271   0.13203244   -4.5520249    1.6765979      8192000 
   73000    1.0934048   -4.5145792   -4.5145792   -2.8744724  0.049617836   -4.5145792    1.6401069      8192000 
   74000    1.0718022   -4.4815478   -4.4815478   -2.8738449 -0.013977066   -4.4815478    1.6077029      8192000 
   75000    1.0546455   -4.4547109   -4.4547109    -2.872743   -0.0565034   -4.4547109    1.5819679      8192000 
   76000    1.0423445   -4.4348252   -4.4348252   -2.8713089 -0.078000096   -4.4348252    1.5635163      8192000 
   77000     1.034629   -4.4224993   -4.4224993   -2.8705563 -0.078733381   -4.4224993    1.5519431      8192000 
   78000    1.0323554    -4.417883    -4.417883   -2.8693503 -0.065988997    -4.417883    1.5485327      8192000 
   79000    1.0338044   -4.4190501   -4.4190501   -2.8683439 -0.043789791   -4.4190501    1.5507062      8192000 
   80000    1.0377252   -4.4244611   -4.4244611   -2.8678736 -0.020291209   -4.4244611    1.5565875      8192000 
   81000    1.0438087   -4.4330861   -4.4330861   -2.8673734 0.0061555174   -4.4330861    1.5657127      8192000 
   82000    1.0488372   -4.4407477   -4.4407477   -2.8674924  0.026491623   -4.4407477    1.5732554      8192000 
   83000    1.0533496   -4.4476614   -4.4476614   -2.8676374  0.043703207   -4.4476614     1.580024      8192000 
   84000    1.0582232    -4.455638    -4.455638   -2.8683036  0.059087547    -4.455638    1.5873344      8192000 
   85000    1.0615752   -4.4611778   -4.4611778   -2.8688154  0.069163469   -4.4611778    1.5923624      8192000 
   86000    1.0642644   -4.4662248   -4.4662248   -2.8698286  0.074470009   -4.4662248    1.5963962      8192000 
   87000    1.0646404    -4.468847    -4.468847   -2.8718868  0.080481297    -4.468847    1.5969602      8192000 
   88000      1.06537   -4.4718911   -4.4718911   -2.8738365  0.080175661   -4.4718911    1.5980546      8192000 
   89000    1.0654132   -4.4738646   -4.4738646   -2.8757452  0.082624771   -4.4738646    1.5981195      8192000 
   90000    1.0650612   -4.4769361   -4.4769361   -2.8793448  0.087032239   -4.4769361    1.5975914      8192000 
   91000    1.0666371   -4.4846911   -4.4846911   -2.8847358  0.092807541   -4.4846911    1.5999553      8192000 
   92000    1.0687186   -4.4968679   -4.4968679   -2.8937905   0.11192323   -4.4968679    1.6030774      8192000 
   93000    1.0714787    -4.514892    -4.514892   -2.9076744   0.14481563    -4.514892    1.6072176      8192000 
   94000    1.0716832   -4.5347658   -4.5347658   -2.9272414   0.18683447   -4.5347658    1.6075244      8192000 
   95000    1.0708196   -4.5545462   -4.5545462   -2.9483172   0.22525341   -4.5545462    1.6062289      8192000 
   96000    1.0677511   -4.5670173   -4.5670173    -2.965391   0.24171159   -4.5670173    1.6016262      8192000 
   97000    1.0640455    -4.571776    -4.571776   -2.9757081   0.22581274    -4.571776    1.5960679      8192000 
   98000    1.0584935   -4.5682746   -4.5682746   -2.9805348   0.19620741   -4.5682746    1.5877398      8192000 
   99000    1.0518944   -4.5605206   -4.5605206   -2.9826794   0.16759426   -4.5605206    1.5778412      8192000 
  100000    1.0460013   -4.5515691   -4.5515691   -2.9825675   0.14600112   -4.5515691    1.5690016      8192000 
  101000    1.0414715   -4.5435138   -4.5435138    -2.981307   0.12626592   -4.5435138    1.5622068      8192000 
  102000    1.0374686    -4.535629    -4.535629   -2.9794265   0.11581238    -4.535629    1.5562026      8192000 
  103000    1.0341444   -4.5288726   -4.5288726   -2.9776565   0.10645569   -4.5288726    1.5512162      8192000 
  104000    1.0320111   -4.5236477   -4.5236477   -2.9756315   0.10115251   -4.5236477    1.5480162      8192000 
  105000    1.0299574   -4.5191608   -4.5191608   -2.9742251  0.097064464   -4.5191608    1.5449357      8192000 
  106000    1.0276515   -4.5150573   -4.5150573   -2.9735805  0.094670463   -4.5150573    1.5414768      8192000 
  107000    1.0264429   -4.5127457   -4.5127457   -2.9730817  0.091633564   -4.5127457     1.539664      8192000 
  108000    1.0261724   -4.5114218   -4.5114218   -2.9721635  0.090281337   -4.5114218    1.5392583      8192000 
  109000    1.0255535   -4.5105091   -4.5105091   -2.9721792   0.09379627   -4.5105091    1.5383299      8192000 
  110000    1.0253243   -4.5103601   -4.5103601    -2.972374  0.095168666   -4.5103601    1.5379861      8192000 
  111000    1.0252774   -4.5109961   -4.5109961   -2.9730803  0.096799736   -4.5109961    1.5379158      8192000 
  112000    1.0254031   -4.5116277   -4.5116277   -2.9735235  0.098001787   -4.5116277    1.5381043      8192000 
  113000      1.02547   -4.5123639   -4.5123639   -2.9741592  0.099983241   -4.5123639    1.5382047      8192000 
  114000    1.0255777   -4.5129351   -4.5129351   -2.9745689   0.10358674   -4.5129351    1.5383661      8192000 
  115000    1.0253895   -4.5131763   -4.5131763   -2.9750924   0.10595734   -4.5131763    1.5380838      8192000 
  116000    1.0256042   -4.5136361   -4.5136361   -2.9752302   0.10601079   -4.5136361     1.538406      8192000 
  117000    1.0252816   -4.5137912   -4.5137912   -2.9758692   0.10613599   -4.5137912     1.537922      8192000 
  118000    1.0240832   -4.5122524   -4.5122524   -2.9761279   0.10653409   -4.5122524    1.5361245      8192000 
  119000    1.0232409   -4.5110285   -4.5110285   -2.9761675   0.10029603   -4.5110285     1.534861      8192000 
  120000    1.0220297   -4.5091197   -4.5091197   -2.9760755  0.098158518   -4.5091197    1.5330441      8192000 
  121000    1.0209805   -4.5074997   -4.5074997   -2.9760294  0.094218085   -4.5074997    1.5314704      8192000 
  122000    1.0201156   -4.5057183   -4.5057183   -2.9755453  0.090902357   -4.5057183    1.5301731      8192000 
  123000    1.0186894   -4.5034916   -4.5034916   -2.9754579  0.088413325   -4.5034916    1.5280337      8192000 
  124000    1.0177788   -4.5022753   -4.5022753   -2.9756074  0.083709554   -4.5022753    1.5266679      8192000 
  125000     1.016475   -4.5000339   -4.5000339   -2.9753218  0.081751277   -4.5000339    1.5247122      8192000 
  126000    1.0154755   -4.4979248   -4.4979248    -2.974712   0.07986828   -4.4979248    1.5232128      8192000 
  127000    1.0151505   -4.4976016   -4.4976016   -2.9748763  0.075620711   -4.4976016    1.5227253      8192000 
  128000    1.0148015   -4.4960874   -4.4960874   -2.9738854   0.07631636   -4.4960874    1.5222019      8192000 
  129000    1.0143588   -4.4949487   -4.4949487   -2.9734109  0.074551656   -4.4949487    1.5215378      8192000 
  130000    1.0145415   -4.4951866   -4.4951866   -2.9733747  0.073584166   -4.4951866    1.5218119      8192000 
  131000    1.0144529   -4.4942899   -4.4942899    -2.972611  0.076329056   -4.4942899    1.5216789      8192000 
  132000    1.0143587   -4.4940718   -4.4940718   -2.9725341  0.074659115   -4.4940718    1.5215377      8192000 
  133000    1.0139862     -4.49356     -4.49356    -2.972581  0.074369332     -4.49356     1.520979      8192000 
  134000     1.013462   -4.4920478   -4.4920478   -2.9718551  0.075351244   -4.4920478    1.5201926      8192000 
  135000    1.0134875   -4.4917418   -4.4917418    -2.971511  0.075172703   -4.4917418    1.5202308      8192000 
  136000    1.0130212   -4.4913459   -4.4913459   -2.9718145  0.072521901   -4.4913459    1.5195314      8192000 
  137000    1.0124568   -4.4907768   -4.4907768   -2.9720921  0.073166372   -4.4907768    1.5186848      8192000 
  138000    1.0130669   -4.4912144   -4.4912144   -2.9716145  0.071550085   -4.4912144    1.5195999      8192000 
  139000    1.0141016   -4.4920865   -4.4920865   -2.9709345  0.073085526   -4.4920865     1.521152      8192000 
  140000    1.0137773   -4.4922417   -4.4922417    -2.971576  0.072003106   -4.4922417    1.5206656      8192000 
  141000    1.0137833   -4.4919749   -4.4919749   -2.9713003  0.073280683   -4.4919749    1.5206746      8192000 
  142000    1.0143055   -4.4923805   -4.4923805   -2.9709226  0.073176508   -4.4923805    1.5214579      8192000 
  143000    1.0146067   -4.4929145   -4.4929145   -2.9710048  0.074477418   -4.4929145    1.5219096      8192000 
  144000    1.0150986   -4.4936774   -4.4936774   -2.9710298   0.07370488   -4.4936774    1.5226475      8192000 
  145000    1.0152576    -4.493631    -4.493631    -2.970745  0.076732866    -4.493631    1.5228861      8192000 
  146000    1.0156758   -4.4941694   -4.4941694    -2.970656  0.078575602   -4.4941694    1.5235134      8192000 
  147000    1.0163947   -4.4955211   -4.4955211   -2.9709295  0.075861738   -4.4955211    1.5245916      8192000 
  148000     1.016111   -4.4948293   -4.4948293   -2.9706632   0.07875341   -4.4948293    1.5241661      8192000 
  149000     1.015967   -4.4949065   -4.4949065   -2.9709564  0.077381787   -4.4949065    1.5239501      8192000 
  150000    1.0155234   -4.4938834   -4.4938834   -2.9705986  0.074723937   -4.4938834    1.5232848      8192000 
  151000    1.0153178   -4.4938366   -4.4938366   -2.9708603  0.074682067   -4.4938366    1.5229763      8192000 
  152000    1.0151836   -4.4933006   -4.4933006   -2.9705256  0.075520876   -4.4933006     1.522775      8192000 
  153000    1.0148207   -4.4926382   -4.4926382   -2.9704076   0.07487405   -4.4926382    1.5222307      8192000 
  154000    1.0150001   -4.4933562   -4.4933562   -2.9708564  0.073931709   -4.4933562    1.5224998      8192000 
  155000    1.0149037   -4.4925328   -4.4925328   -2.9701776  0.074494303   -4.4925328    1.5223552      8192000 
  156000    1.0151292   -4.4927694   -4.4927694   -2.9700759  0.069470085   -4.4927694    1.5226935      8192000 
  157000    1.0147632   -4.4921093   -4.4921093    -2.969965   0.07020941   -4.4921093    1.5221444      8192000 
  158000    1.0147158   -4.4917541   -4.4917541   -2.9696808   0.06868524   -4.4917541    1.5220733      8192000 
  159000    1.0142172   -4.4914375   -4.4914375   -2.9701122  0.067919484   -4.4914375    1.5213254      8192000 
  160000     1.014246   -4.4912738   -4.4912738   -2.9699052  0.069647243   -4.4912738    1.5213686      8192000 
  161000    1.0143049   -4.4915514   -4.4915514   -2.9700945  0.068467439   -4.4915514    1.5214569      8192000 
  162000    1.0145315   -4.4919873   -4.4919873   -2.9701905  0.068197452   -4.4919873    1.5217968      8192000 
  163000    1.0151001   -4.4923142   -4.4923142   -2.9696644  0.068891223   -4.4923142    1.5226498      8192000 
  164000    1.0155775    -4.493053    -4.493053   -2.9696872     0.069281    -4.493053    1.5233658      8192000 
  165000     1.015629   -4.4929442   -4.4929442   -2.9695011  0.072829431   -4.4929442    1.5234431      8192000 
  166000    1.0164944   -4.4939966   -4.4939966   -2.9692554  0.070606656   -4.4939966    1.5247412      8192000 
  167000    1.0157343   -4.4931889   -4.4931889   -2.9695879  0.071056377   -4.4931889     1.523601      8192000 
  168000    1.0159127   -4.4937655   -4.4937655   -2.9698968  0.069762978   -4.4937655    1.5238687      8192000 
  169000    1.0162871   -4.4942447   -4.4942447   -2.9698145  0.070620981   -4.4942447    1.5244303      8192000 
  170000    1.0160956    -4.493807    -4.493807    -2.969664  0.072419684    -4.493807     1.524143      8192000 
  171000    1.0163259   -4.4942854   -4.4942854   -2.9697969  0.071606692   -4.4942854    1.5244885      8192000 
  172000    1.0165071   -4.4946472   -4.4946472   -2.9698869  0.070100309   -4.4946472    1.5247603      8192000 
  173000    1.0157879   -4.4938348   -4.4938348   -2.9701533  0.070817719   -4.4938348    1.5236815      8192000 
  174000    1.0162582   -4.4948496   -4.4948496   -2.9704627  0.069789049   -4.4948496    1.5243869      8192000 
  175000    1.0159916   -4.4944638   -4.4944638   -2.9704768  0.069531762   -4.4944638    1.5239871      8192000 
  176000    1.0158827   -4.4939222   -4.4939222   -2.9700986  0.068597157   -4.4939222    1.5238236      8192000 
  177000    1.0156021    -4.494192    -4.494192   -2.9707892   0.06884522    -4.494192    1.5234028      8192000 
  178000    1.0155622   -4.4940794   -4.4940794   -2.9707365  0.066207154   -4.4940794    1.5233429      8192000 
  179000    1.0153444   -4.4934942   -4.4934942   -2.9704779  0.067110506   -4.4934942    1.5230162      8192000 
  180000    1.0155387   -4.4937565   -4.4937565   -2.9704488  0.067870861   -4.4937565    1.5233077      8192000 
  181000    1.0159686    -4.494562    -4.494562   -2.9706095  0.064407952    -4.494562    1.5239525      8192000 
  182000    1.0154769   -4.4936524   -4.4936524   -2.9704374  0.065908983   -4.4936524    1.5232149      8192000 
  183000    1.0154468   -4.4940909   -4.4940909   -2.9709211  0.062713196   -4.4940909    1.5231698      8192000 
  184000    1.0154091   -4.4940161   -4.4940161   -2.9709028  0.064540094   -4.4940161    1.5231132      8192000 
  185000     1.015392   -4.4938241   -4.4938241   -2.9707364  0.063613991   -4.4938241    1.5230876      8192000 
  186000    1.0156859   -4.4946213   -4.4946213   -2.9710928  0.061572883   -4.4946213    1.5235285      8192000 
  187000    1.0153424   -4.4941279   -4.4941279   -2.9711147  0.064816777   -4.4941279    1.5230132      8192000 
  188000    1.0161629   -4.4949346   -4.4949346   -2.9706906  0.065175042   -4.4949346     1.524244      8192000 
  189000    1.0162262   -4.4953998   -4.4953998   -2.9710609  0.064303801   -4.4953998    1.5243389      8192000 
  190000    1.0158614   -4.4950437   -4.4950437   -2.9712519  0.066993611   -4.4950437    1.5237918      8192000 
  191000    1.0160429   -4.4954031   -4.4954031   -2.9713391  0.065626538   -4.4954031    1.5240639      8192000 
  192000    1.0158886   -4.4953691   -4.4953691   -2.9715367  0.066337127   -4.4953691    1.5238325      8192000 
  193000    1.0163908   -4.4961712   -4.4961712   -2.9715854  0.067240372   -4.4961712    1.5245858      8192000 
  194000    1.0163505   -4.4967995   -4.4967995   -2.9722741  0.066277324   -4.4967995    1.5245254      8192000 
  195000     1.016655   -4.4969152   -4.4969152   -2.9719331  0.066460918   -4.4969152    1.5249821      8192000 
  196000    1.0162562   -4.4967615   -4.4967615   -2.9723775  0.066264315   -4.4967615     1.524384      8192000 
  197000    1.0163736    -4.496862    -4.496862   -2.9723019   0.06478642    -4.496862    1.5245601      8192000 
  198000     1.016404   -4.4967178   -4.4967178   -2.9721122  0.066586563   -4.4967178    1.5246056      8192000 
  199000    1.0167564   -4.4968452   -4.4968452    -2.971711  0.066011596   -4.4968452    1.5251342      8192000 
  200000    1.0162792   -4.4965976   -4.4965976   -2.9721792   0.06406405   -4.4965976    1.5244184      8192000 
  201000    1.0164283   -4.4970765   -4.4970765   -2.9724344  0.061858275   -4.4970765     1.524642      8192000 
  202000    1.0163833   -4.4973972   -4.4973972   -2.9728226  0.063473069   -4.4973972    1.5245746      8192000 
  203000    1.0165296   -4.4975697   -4.4975697   -2.9727756  0.065103436   -4.4975697    1.5247941      8192000 
  204000    1.0164186   -4.4973955   -4.4973955   -2.9727679  0.066739683   -4.4973955    1.5246276      8192000 
  205000    1.0164909   -4.4978014   -4.4978014   -2.9730654  0.064933492   -4.4978014    1.5247359      8192000 
  206000    1.0163784   -4.4979839   -4.4979839   -2.9734167  0.063819585   -4.4979839    1.5245672      8192000 
  207000    1.0167487   -4.4983552   -4.4983552   -2.9732325  0.063472787   -4.4983552    1.5251227      8192000 
  208000    1.0170369    -4.499041    -4.499041   -2.9734861  0.063280387    -4.499041    1.5255549      8192000 
  209000     1.016745   -4.4991789   -4.4991789   -2.9740617  0.062201004   -4.4991789    1.5251172      8192000 
  210000    1.0167539   -4.4992105   -4.4992105   -2.9740801  0.064029193   -4.4992105    1.5251304      8192000 
  211000    1.0163836   -4.4987646   -4.4987646   -2.9741895  0.064877845   -4.4987646     1.524575      8192000 
  212000    1.0169395   -4.4998933   -4.4998933   -2.9744844  0.064671995   -4.4998933    1.5254089      8192000 
  213000    1.0168117   -4.4993238   -4.4993238   -2.9741066  0.066405206   -4.4993238    1.5252172      8192000 
  214000    1.0171998   -4.5002446   -4.5002446   -2.9744454  0.061873252   -4.5002446    1.5257993      8192000 
  215000    1.0172344   -4.5002657   -4.5002657   -2.9744145  0.063101045   -4.5002657    1.5258512      8192000 
  216000    1.0168535   -4.5000251   -4.5000251   -2.9747452  0.063466113   -4.5000251    1.5252799      8192000 
  217000    1.0165938   -4.4995794   -4.4995794   -2.9746891  0.064265457   -4.4995794    1.5248904      8192000 
  218000    1.0169405   -4.5002179   -4.5002179   -2.9748075  0.062492155   -4.5002179    1.5254104      8192000 
  219000    1.0164173   -4.4998448   -4.4998448   -2.9752192  0.065239988   -4.4998448    1.5246256      8192000 
  220000    1.0173473   -4.5010505   -4.5010505     -2.97503  0.062940586   -4.5010505    1.5260205      8192000 
  221000    1.0172145   -4.5010833   -4.5010833   -2.9752618  0.063286025   -4.5010833    1.5258214      8192000 
  222000    1.0163981   -4.5000835   -4.5000835   -2.9754867  0.063157623   -4.5000835    1.5245968      8192000 
  223000    1.0166574   -4.5004781   -4.5004781   -2.9754924  0.060047875   -4.5004781    1.5249857      8192000 
  224000    1.0167798   -4.5005074   -4.5005074   -2.9753381  0.063288372   -4.5005074    1.5251693      8192000 
  225000    1.0168979    -4.500956    -4.500956   -2.9756095   0.06162225    -4.500956    1.5253465      8192000 
  226000    1.0165828   -4.5006508   -4.5006508   -2.9757769  0.063564745   -4.5006508    1.5248739      8192000 
  227000    1.0166704   -4.5009428   -4.5009428   -2.9759376  0.061335537   -4.5009428    1.5250052      8192000 
  228000    1.0167121   -4.5009592   -4.5009592   -2.9758914   0.06144249   -4.5009592    1.5250678      8192000 
  229000    1.0165489   -4.5007353   -4.5007353   -2.9759123  0.063843897   -4.5007353     1.524823      8192000 
  230000    1.0165723   -4.5012538   -4.5012538   -2.9763957  0.062329912   -4.5012538    1.5248581      8192000 
  231000    1.0166746   -4.5012322   -4.5012322   -2.9762207  0.061809128   -4.5012322    1.5250115      8192000 
  232000    1.0161078   -4.5005218   -4.5005218   -2.9763604  0.063150934   -4.5005218    1.5241614      8192000 
  233000    1.0167588   -4.5015881   -4.5015881   -2.9764502  0.061983087   -4.5015881    1.5251379      8192000 
  234000    1.0168982   -4.5023066   -4.5023066   -2.9769596  0.061459802   -4.5023066    1.5253469      8192000 
  235000    1.0161519   -4.5008602   -4.5008602   -2.9766328  0.064835918   -4.5008602    1.5242274      8192000 
  236000    1.0168265   -4.5021859   -4.5021859   -2.9769464   0.06119084   -4.5021859    1.5252394      8192000 
  237000    1.0166036    -4.501784    -4.501784   -2.9768789  0.062867937    -4.501784    1.5249051      8192000 
  238000     1.016783   -4.5022662   -4.5022662   -2.9770921  0.061028995   -4.5022662    1.5251741      8192000 
  239000    1.0167437   -4.5022674   -4.5022674   -2.9771522  0.060291989   -4.5022674    1.5251152      8192000 
  240000    1.0168033    -4.502845    -4.502845   -2.9776404  0.059591733    -4.502845    1.5252046      8192000 
  241000    1.0166581   -4.5026387   -4.5026387   -2.9776519  0.061196545   -4.5026387    1.5249868      8192000 
  242000    1.0166705   -4.5031176   -4.5031176   -2.9781122  0.058764638   -4.5031176    1.5250054      8192000 
  243000     1.017327   -4.5031273   -4.5031273   -2.9771372  0.060044259   -4.5031273    1.5259901      8192000 
  244000     1.016435   -4.5022225   -4.5022225   -2.9775703  0.059748407   -4.5022225    1.5246522      8192000 
  245000    1.0161545   -4.5016226   -4.5016226   -2.9773912  0.059366937   -4.5016226    1.5242314      8192000 
  246000    1.0162286   -4.5023173   -4.5023173   -2.9779747  0.057822144   -4.5023173    1.5243426      8192000 
  247000    1.0161277   -4.5027747   -4.5027747   -2.9785835  0.057450875   -4.5027747    1.5241912      8192000 
  248000    1.0159261   -4.5021872   -4.5021872   -2.9782985  0.058673266   -4.5021872    1.5238887      8192000 
  249000    1.0160085   -4.5024566   -4.5024566   -2.9784442  0.058018573   -4.5024566    1.5240123      8192000 
  250000    1.0158683   -4.5021148   -4.5021148   -2.9783126  0.058279762   -4.5021148    1.5238021      8192000 
  251000    1.0155357   -4.5018167   -4.5018167   -2.9785135  0.058830153   -4.5018167    1.5233031      8192000 
  252000    1.0157237   -4.5027596   -4.5027596   -2.9791745  0.056951569   -4.5027596    1.5235851      8192000 
  253000    1.0160828   -4.5031693   -4.5031693   -2.9790455  0.057753249   -4.5031693    1.5241238      8192000 
  254000    1.0159045   -4.5031339   -4.5031339   -2.9792775  0.058356049   -4.5031339    1.5238564      8192000 
  255000    1.0157995    -4.502925    -4.502925   -2.9792261  0.056897908    -4.502925    1.5236989      8192000 
  256000    1.0158442   -4.5036526   -4.5036526   -2.9798866  0.055949532   -4.5036526    1.5237659      8192000 
  257000    1.0150792   -4.5028802   -4.5028802   -2.9802618   0.05734433   -4.5028802    1.5226184      8192000 
  258000    1.0151117    -4.502712    -4.502712   -2.9800448  0.055950102    -4.502712    1.5226672      8192000 
  259000    1.0147921   -4.5025088   -4.5025088   -2.9803211  0.057075498   -4.5025088    1.5221877      8192000 
  260000    1.0156799   -4.5035042   -4.5035042   -2.9799847  0.056093159   -4.5035042    1.5235195      8192000 
  261000    1.0154219   -4.5030242   -4.5030242   -2.9798917  0.057284117   -4.5030242    1.5231325      8192000 
  262000    1.0157537   -4.5034977   -4.5034977   -2.9798675  0.056858661   -4.5034977    1.5236302      8192000 
  263000    1.0156732   -4.5036601   -4.5036601   -2.9801506  0.054798928   -4.5036601    1.5235095      8192000 
  264000     1.015571    -4.503752    -4.503752   -2.9803958  0.056886276    -4.503752    1.5233562      8192000 
  265000    1.0152479   -4.5037177   -4.5037177   -2.9808462  0.054188629   -4.5037177    1.5228715      8192000 
  266000    1.0153587    -4.503959    -4.503959   -2.9809213  0.053929911    -4.503959    1.5230377      8192000 
  267000    1.0145311   -4.5030455   -4.5030455   -2.9812492  0.057314225   -4.5030455    1.5217963      8192000 
  268000    1.0146379    -4.503598    -4.503598   -2.9816416  0.054041136    -4.503598    1.5219564      8192000 
  269000    1.0142786    -4.502839    -4.502839   -2.9814215  0.056312801    -4.502839    1.5214176      8192000 
  270000    1.0143475   -4.5033359   -4.5033359    -2.981815  0.055270419   -4.5033359    1.5215209      8192000 
  271000    1.0151342   -4.5041005   -4.5041005   -2.9813996  0.055679265   -4.5041005    1.5227009      8192000 
  272000    1.0147578   -4.5038924   -4.5038924   -2.9817561  0.053595798   -4.5038924    1.5221363      8192000 
  273000    1.0140877   -4.5033029   -4.5033029   -2.9821718  0.053639143   -4.5033029    1.5211312      8192000 
  274000    1.0144684   -4.5039605   -4.5039605   -2.9822583  0.052765213   -4.5039605    1.5217022      8192000 
  275000    1.0138833   -4.5032239   -4.5032239   -2.9823992  0.053836179   -4.5032239    1.5208246      8192000 
  276000    1.0143822   -4.5039622   -4.5039622   -2.9823893  0.052928578   -4.5039622    1.5215729      8192000 
  277000     1.014246   -4.5038416   -4.5038416    -2.982473  0.053312638   -4.5038416    1.5213686      8192000 
  278000    1.0146355   -4.5043215   -4.5043215   -2.9823687  0.053431524   -4.5043215    1.5219528      8192000 
  279000    1.0142729   -4.5041352   -4.5041352   -2.9827263  0.055303846   -4.5041352     1.521409      8192000 
  280000    1.0146651   -4.5042864   -4.5042864   -2.9822891   0.05249725   -4.5042864    1.5219973      8192000 
  281000    1.0143707   -4.5043157   -4.5043157     -2.98276    0.0527818   -4.5043157    1.5215556      8192000 
  282000    1.0144044    -4.504197    -4.504197   -2.9825909  0.052677215    -4.504197    1.5216062      8192000 
  283000    1.0141666   -4.5044527   -4.5044527   -2.9832031  0.051853061   -4.5044527    1.5212496      8192000 
  284000    1.0145247   -4.5043489   -4.5043489   -2.9825622  0.051101243   -4.5043489    1.5217867      8192000 
  285000    1.0140757   -4.5041375   -4.5041375   -2.9830243  0.052910796   -4.5041375    1.5211132      8192000 
  286000    1.0139045   -4.5041619   -4.5041619   -2.9833056  0.052581595   -4.5041619    1.5208563      8192000 
  287000    1.0137004   -4.5041084   -4.5041084   -2.9835583  0.053043306   -4.5041084    1.5205502      8192000 
  288000    1.0136714   -4.5042535   -4.5042535   -2.9837467  0.051687539   -4.5042535    1.5205067      8192000 
  289000     1.013189   -4.5032057   -4.5032057   -2.9834226  0.052352084   -4.5032057    1.5197831      8192000 
  290000    1.0129337    -4.502916    -4.502916   -2.9835159  0.051534781    -4.502916    1.5194001      8192000 
  291000    1.0129592   -4.5036495   -4.5036495    -2.984211  0.049875747   -4.5036495    1.5194385      8192000 
  292000    1.0132914    -4.504029    -4.504029   -2.9840922    0.0484632    -4.504029    1.5199368      8192000 
  293000      1.01272   -4.5030865   -4.5030865   -2.9840069   0.04885335   -4.5030865    1.5190796      8192000 
  294000    1.0123339    -4.502884    -4.502884   -2.9843836  0.050538075    -4.502884    1.5185004      8192000 
  295000    1.0125405   -4.5031041   -4.5031041   -2.9842937  0.047045615   -4.5031041    1.5188104      8192000 
  296000    1.0121204   -4.5033199   -4.5033199   -2.9851397  0.046995894   -4.5033199    1.5181802      8192000 
  297000    1.0127415   -4.5035006   -4.5035006   -2.9843888  0.048776087   -4.5035006    1.5191118      8192000 
  298000    1.0122433   -4.5031171   -4.5031171   -2.9847526  0.048096388   -4.5031171    1.5183645      8192000 
  299000    1.0128668     -4.50334     -4.50334   -2.9840401  0.048058349     -4.50334    1.5192999      8192000 
  300000     1.012384    -4.503094    -4.503094   -2.9845183  0.048296519    -4.503094    1.5185757      8192000 
  301000    1.0126776   -4.5040669   -4.5040669    -2.985051  0.047554622   -4.5040669     1.519016      8192000 
  302000     1.012479   -4.5029834   -4.5029834   -2.9842653  0.048232331   -4.5029834    1.5187182      8192000 
  303000    1.0118606   -4.5026401   -4.5026401   -2.9848496  0.049072894   -4.5026401    1.5177905      8192000 
  304000    1.0127119   -4.5033732   -4.5033732   -2.9843058  0.048400398   -4.5033732    1.5190674      8192000 
  305000     1.012499   -4.5034939   -4.5034939   -2.9847458  0.048891265   -4.5034939    1.5187481      8192000 
  306000     1.012376   -4.5029971   -4.5029971   -2.9844334  0.049186869   -4.5029971    1.5185636      8192000 
  307000    1.0126133   -4.5033654   -4.5033654   -2.9844459   0.04828576   -4.5033654    1.5189196      8192000 
  308000    1.0118618   -4.5025908   -4.5025908   -2.9847985   0.04871608   -4.5025908    1.5177923      8192000 
  309000    1.0124345   -4.5032881   -4.5032881   -2.9846367  0.047737391   -4.5032881    1.5186514      8192000 
  310000    1.0122914   -4.5033073   -4.5033073   -2.9848706   0.04815845   -4.5033073    1.5184367      8192000 
  311000    1.0121052   -4.5033202   -4.5033202   -2.9851627  0.046530125   -4.5033202    1.5181574      8192000 
  312000    1.0121531    -4.503413    -4.503413   -2.9851838  0.046888243    -4.503413    1.5182293      8192000 
  313000    1.0119539   -4.5030872   -4.5030872   -2.9851567  0.046301864   -4.5030872    1.5179305      8192000 
  314000     1.012054   -4.5036282   -4.5036282   -2.9855477   0.04711578   -4.5036282    1.5180806      8192000 
  315000    1.0119118   -4.5033134   -4.5033134   -2.9854461  0.046873521   -4.5033134    1.5178673      8192000 
  316000    1.0120019   -4.5037216   -4.5037216   -2.9857191  0.046301817   -4.5037216    1.5180025      8192000 
  317000    1.0111954   -4.5029223   -4.5029223   -2.9861296  0.047511127   -4.5029223    1.5167927      8192000 
  318000    1.0112117   -4.5030686   -4.5030686   -2.9862514  0.047493878   -4.5030686    1.5168172      8192000 
  319000    1.0108055   -4.5026663   -4.5026663   -2.9864585  0.045590277   -4.5026663    1.5162078      8192000 
  320000    1.0105249    -4.502211    -4.502211   -2.9864241  0.046747501    -4.502211    1.5157869      8192000 
  321000    1.0108097    -4.502797    -4.502797   -2.9865827  0.046437263    -4.502797    1.5162142      8192000 
  322000    1.0109456     -4.50298     -4.50298   -2.9865619   0.04769015     -4.50298    1.5164181      8192000 
  323000    1.0109113   -4.5033981   -4.5033981   -2.9870316    0.0434722   -4.5033981    1.5163666      8192000 
  324000    1.0107742   -4.5030924   -4.5030924   -2.9869316  0.045504724   -4.5030924    1.5161609      8192000 
  325000     1.010732   -4.5026245   -4.5026245   -2.9865268  0.044908478   -4.5026245    1.5160976      8192000 
  326000    1.0105473   -4.5031839   -4.5031839   -2.9873633  0.044803243   -4.5031839    1.5158206      8192000 
  327000    1.0105066    -4.503394    -4.503394   -2.9876346  0.045930236    -4.503394    1.5157595      8192000 
  328000    1.0108734   -4.5038369   -4.5038369   -2.9875271  0.044490165   -4.5038369    1.5163098      8192000 
  329000    1.0107785   -4.5042794   -4.5042794    -2.988112  0.044581622   -4.5042794    1.5161674      8192000 
  330000    1.0105622   -4.5034479   -4.5034479   -2.9876049  0.047686051   -4.5034479     1.515843      8192000 
  331000    1.0107107   -4.5034724   -4.5034724   -2.9874067  0.045108019   -4.5034724    1.5160657      8192000 
  332000    1.0104763   -4.5035123   -4.5035123   -2.9877982  0.044630276   -4.5035123    1.5157141      8192000 
  333000    1.0106358   -4.5036217   -4.5036217   -2.9876684  0.044843566   -4.5036217    1.5159534      8192000 
  334000    1.0106062   -4.5037122   -4.5037122   -2.9878034  0.045366968   -4.5037122    1.5159089      8192000 
  335000    1.0108627   -4.5044037   -4.5044037   -2.9881101  0.044725407   -4.5044037    1.5162936      8192000 
  336000    1.0104829   -4.5037472   -4.5037472   -2.9880232  0.044969598   -4.5037472     1.515724      8192000 
  337000    1.0105247   -4.5043262   -4.5043262   -2.9885396  0.044737112   -4.5043262    1.5157866      8192000 
  338000    1.0105541   -4.5040316   -4.5040316   -2.9882008  0.045254769   -4.5040316    1.5158308      8192000 
  339000    1.0109958   -4.5046679   -4.5046679   -2.9881746   0.04426602   -4.5046679    1.5164933      8192000 
  340000    1.0106064   -4.5041216   -4.5041216   -2.9882124  0.045817779   -4.5041216    1.5159092      8192000 
  341000    1.0105009   -4.5040506   -4.5040506   -2.9882996  0.045475223   -4.5040506    1.5157509      8192000 
  342000    1.0106784   -4.5041617   -4.5041617   -2.9881444  0.045056857   -4.5041617    1.5160173      8192000 
  343000    1.0108798   -4.5045574   -4.5045574   -2.9882381  0.043935849   -4.5045574    1.5163193      8192000 
  344000    1.0102975   -4.5039174   -4.5039174   -2.9884715  0.043680867   -4.5039174    1.5154459      8192000 
  345000    1.0103257   -4.5040968   -4.5040968   -2.9886087  0.043998565   -4.5040968    1.5154882      8192000 
  346000    1.0098819   -4.5039705   -4.5039705   -2.9891481  0.044209566   -4.5039705    1.5148224      8192000 
  347000    1.0097685   -4.5036318   -4.5036318   -2.9889795  0.044121551   -4.5036318    1.5146523      8192000 
  348000    1.0102463   -4.5045712   -4.5045712   -2.9892021  0.041569952   -4.5045712    1.5153691      8192000 
  349000    1.0097719   -4.5040389   -4.5040389   -2.9893814  0.044685761   -4.5040389    1.5146575      8192000 
  350000    1.0101721    -4.505024    -4.505024   -2.9897662  0.042554878    -4.505024    1.5152578      8192000 
  351000    1.0099109   -4.5043418   -4.5043418   -2.9894759  0.045692893   -4.5043418    1.5148659      8192000 
  352000     1.009886    -4.504698    -4.504698   -2.9898694  0.044721294    -4.504698    1.5148286      8192000 
  353000    1.0099667    -4.504692    -4.504692   -2.9897424   0.04473555    -4.504692    1.5149497      8192000 
  354000    1.0096777   -4.5044093   -4.5044093   -2.9898931  0.044398363   -4.5044093    1.5145162      8192000 
  355000    1.0088905   -4.5032382   -4.5032382   -2.9899028  0.045296654   -4.5032382    1.5133354      8192000 
  356000    1.0094343   -4.5041802   -4.5041802   -2.9900292  0.042439965   -4.5041802     1.514151      8192000 
  357000    1.0093366   -4.5041799   -4.5041799   -2.9901754  0.043376258   -4.5041799    1.5140045      8192000 
  358000    1.0089465    -4.503793    -4.503793   -2.9903736  0.042970601    -4.503793    1.5134194      8192000 
  359000    1.0093528   -4.5043706   -4.5043706   -2.9903417  0.040367085   -4.5043706    1.5140288      8192000 
  360000    1.0094335   -4.5040768   -4.5040768    -2.989927  0.042627794   -4.5040768    1.5141498      8192000 
  361000    1.0092117   -4.5039281   -4.5039281    -2.990111  0.042381695   -4.5039281    1.5138171      8192000 
  362000    1.0089467   -4.5038035   -4.5038035   -2.9903839  0.043092629   -4.5038035    1.5134197      8192000 
  363000     1.009398   -4.5044527   -4.5044527    -2.990356  0.042681829   -4.5044527    1.5140966      8192000 
  364000    1.0093219   -4.5044243   -4.5044243   -2.9904419  0.042815435   -4.5044243    1.5139824      8192000 
  365000     1.009023   -4.5042748   -4.5042748   -2.9907406  0.041994394   -4.5042748    1.5135342      8192000 
  366000    1.0088881    -4.504013    -4.504013   -2.9906811  0.043499598    -4.504013    1.5133318      8192000 
  367000    1.0093246   -4.5044874   -4.5044874   -2.9905009  0.045939448   -4.5044874    1.5139865      8192000 
  368000    1.0094967   -4.5053932   -4.5053932   -2.9911485  0.042014192   -4.5053932    1.5142446      8192000 
  369000    1.0089531   -4.5044513   -4.5044513    -2.991022  0.045183365   -4.5044513    1.5134292      8192000 
  370000    1.0090711   -4.5048868   -4.5048868   -2.9912806  0.043702343   -4.5048868    1.5136062      8192000 
  371000     1.009142     -4.50519     -4.50519   -2.9914773  0.042890548     -4.50519    1.5137126      8192000 
  372000    1.0090698   -4.5052783   -4.5052783    -2.991674   0.04622179   -4.5052783    1.5136043      8192000 
  373000    1.0092866   -4.5056773   -4.5056773   -2.9917478   0.04448629   -4.5056773    1.5139295      8192000 
  374000    1.0090933   -4.5054212   -4.5054212   -2.9917816  0.044037826   -4.5054212    1.5136395      8192000 
  375000     1.009266   -4.5053265   -4.5053265   -2.9914279  0.043720445   -4.5053265    1.5138987      8192000 
  376000    1.0088389   -4.5050955   -4.5050955   -2.9918375   0.04258433   -4.5050955     1.513258      8192000 
  377000    1.0089181    -4.505672    -4.505672   -2.9922953  0.042146956    -4.505672    1.5133768      8192000 
  378000    1.0085828   -4.5051241   -4.5051241   -2.9922503  0.042895169   -4.5051241    1.5128738      8192000 
  379000    1.0084454   -4.5049657   -4.5049657    -2.992298  0.044247093   -4.5049657    1.5126678      8192000 
  380000    1.0083196   -4.5048512   -4.5048512   -2.9923723  0.041083263   -4.5048512     1.512479      8192000 
  381000    1.0082273   -4.5049107   -4.5049107   -2.9925702  0.041884024   -4.5049107    1.5123405      8192000 
  382000    1.0085284   -4.5055536   -4.5055536   -2.9927614  0.040775442   -4.5055536    1.5127922      8192000 
  383000    1.0085257   -4.5052205   -4.5052205   -2.9924323  0.041920537   -4.5052205    1.5127882      8192000 
  384000    1.0083145   -4.5046439   -4.5046439   -2.9921725  0.043643301   -4.5046439    1.5124714      8192000 
  385000    1.0085261   -4.5050557   -4.5050557    -2.992267  0.042642507   -4.5050557    1.5127887      8192000 
  386000    1.0088647   -4.5055372   -4.5055372   -2.9922405  0.040882478   -4.5055372    1.5132967      8192000 
  387000    1.0081696   -4.5048885   -4.5048885   -2.9926345  0.042144462   -4.5048885     1.512254      8192000 
  388000    1.0081273    -4.505115    -4.505115   -2.9929244  0.043593666    -4.505115    1.5121905      8192000 
  389000     1.008762   -4.5063991   -4.5063991   -2.9932565  0.040002327   -4.5063991    1.5131426      8192000 
  390000     1.008225   -4.5056214   -4.5056214   -2.9932842  0.042272119   -4.5056214    1.5123372      8192000 
  391000    1.0081201    -4.505535    -4.505535   -2.9933552  0.042924938    -4.505535    1.5121798      8192000 
  392000    1.0082886   -4.5061704   -4.5061704   -2.9937379  0.042513134   -4.5061704    1.5124326      8192000 
  393000    1.0082127   -4.5058863   -4.5058863   -2.9935676  0.043525988   -4.5058863    1.5123187      8192000 
  394000    1.0080391   -4.5056917   -4.5056917   -2.9936334  0.043401142   -4.5056917    1.5120582      8192000 
  395000    1.0086375   -4.5065561   -4.5065561   -2.9936002  0.041624963   -4.5065561    1.5129558      8192000 
  396000     1.008008   -4.5062451   -4.5062451   -2.9942335  0.042863453   -4.5062451    1.5120116      8192000 
  397000    1.0082046   -4.5061363   -4.5061363   -2.9938298  0.044074009   -4.5061363    1.5123065      8192000 
  398000    1.0077604   -4.5059595   -4.5059595   -2.9943193  0.041928108   -4.5059595    1.5116402      8192000 
  399000    1.0075208   -4.5055435   -4.5055435   -2.9942627  0.043277844   -4.5055435    1.5112808      8192000 
  400000    1.0077962   -4.5062086   -4.5062086   -2.9945147  0.041823452   -4.5062086    1.5116939      8192000 
  401000    1.0078575   -4.5060561   -4.5060561   -2.9942702   0.04150596   -4.5060561    1.5117859      8192000 
  402000    1.0073981   -4.5056046   -4.5056046   -2.9945078  0.043019154   -4.5056046    1.5110968      8192000 
  403000    1.0072078    -4.505616    -4.505616   -2.9948047   0.04042298    -4.505616    1.5108113      8192000 
  404000    1.0074033   -4.5058744   -4.5058744   -2.9947698  0.041198414   -4.5058744    1.5111045      8192000 
  405000    1.0071945   -4.5058113   -4.5058113   -2.9950199  0.040118956   -4.5058113    1.5107913      8192000 
  406000    1.0071605   -4.5057544   -4.5057544    -2.995014  0.042472365   -4.5057544    1.5107404      8192000 
  407000    1.0065903   -4.5053326   -4.5053326   -2.9954476  0.043120326   -4.5053326     1.509885      8192000 
  408000    1.0069211   -4.5056812   -4.5056812   -2.9952998  0.040866144   -4.5056812    1.5103813      8192000 
  409000    1.0069811   -4.5061829   -4.5061829   -2.9957115  0.040310457   -4.5061829    1.5104713      8192000 
  410000    1.0073481   -4.5067107   -4.5067107   -2.9956889  0.040380303   -4.5067107    1.5110217      8192000 
  411000    1.0067993    -4.505716    -4.505716   -2.9955174  0.042143926    -4.505716    1.5101986      8192000 
  412000    1.0070656   -4.5064744   -4.5064744   -2.9958764    0.0418095   -4.5064744    1.5105981      8192000 
  413000    1.0071626   -4.5067998   -4.5067998   -2.9960562  0.041373761   -4.5067998    1.5107436      8192000 
  414000    1.0069345   -4.5062362   -4.5062362   -2.9958348  0.042661121   -4.5062362    1.5104014      8192000 
  415000    1.0066239   -4.5062359   -4.5062359   -2.9963004  0.043692133   -4.5062359    1.5099355      8192000 
  416000    1.0073804   -4.5069308   -4.5069308   -2.9958606  0.042224712   -4.5069308    1.5110702      8192000 
  417000    1.0070599   -4.5069211   -4.5069211   -2.9963316  0.044469599   -4.5069211    1.5105895      8192000 
  418000    1.0071548   -4.5073731   -4.5073731   -2.9966412  0.043313763   -4.5073731    1.5107319      8192000 
  419000    1.0071652   -4.5079202   -4.5079202   -2.9971727  0.042225513   -4.5079202    1.5107475      8192000 
  420000    1.0071126   -4.5072556   -4.5072556    -2.996587  0.045198113   -4.5072556    1.5106686      8192000 
  421000     1.007537   -4.5080442   -4.5080442    -2.996739  0.044207312   -4.5080442    1.5113052      8192000 
  422000    1.0076441    -4.508396    -4.508396   -2.9969303  0.041969565    -4.508396    1.5114657      8192000 
  423000    1.0068652   -4.5077259   -4.5077259   -2.9974285  0.041304256   -4.5077259    1.5102975      8192000 
  424000    1.0072437   -4.5082826   -4.5082826   -2.9974174  0.041377803   -4.5082826    1.5108652      8192000 
  425000    1.0064349   -4.5069372   -4.5069372   -2.9972853  0.043191244   -4.5069372     1.509652      8192000 
  426000    1.0073306   -4.5079356   -4.5079356   -2.9969401  0.043036781   -4.5079356    1.5109955      8192000 
  427000     1.006905    -4.507885    -4.507885   -2.9975279  0.042978169    -4.507885    1.5103571      8192000 
  428000    1.0063368   -4.5072639   -4.5072639   -2.9977591  0.043409607   -4.5072639    1.5095048      8192000 
  429000    1.0065016   -4.5077299   -4.5077299   -2.9979778  0.040341183   -4.5077299    1.5097521      8192000 
  430000    1.0066205   -4.5076718   -4.5076718   -2.9977415  0.041634332   -4.5076718    1.5099303      8192000 
  431000    1.0066062   -4.5073939   -4.5073939    -2.997485  0.042712168   -4.5073939    1.5099089      8192000 
  432000    1.0066991   -4.5075069   -4.5075069   -2.9974586  0.041544171   -4.5075069    1.5100483      8192000 
  433000    1.0066038    -4.507653    -4.507653   -2.9977477  0.041396801    -4.507653    1.5099053      8192000 
  434000    1.0063731   -4.5076779   -4.5076779   -2.9981187  0.043036519   -4.5076779    1.5095592      8192000 
  435000    1.0068459   -4.5076189   -4.5076189   -2.9973503   0.04388297   -4.5076189    1.5102685      8192000 
  436000     1.006665   -4.5080979   -4.5080979   -2.9981009  0.041139055   -4.5080979    1.5099971      8192000 
  437000    1.0063083   -4.5072685   -4.5072685   -2.9978065  0.042579923   -4.5072685     1.509462      8192000 
  438000    1.0064958   -4.5081002   -4.5081002   -2.9983569   0.04107459   -4.5081002    1.5097433      8192000 
  439000    1.0060781   -4.5073831   -4.5073831   -2.9982664  0.042044152   -4.5073831    1.5091167      8192000 
  440000    1.0063208   -4.5073412   -4.5073412   -2.9978604  0.041697486   -4.5073412    1.5094808      8192000 
  441000    1.0061216   -4.5076063   -4.5076063   -2.9984244  0.040962689   -4.5076063     1.509182      8192000 
  442000    1.0057673    -4.507308    -4.507308   -2.9986575  0.042585515    -4.507308    1.5086506      8192000 
  443000    1.0060268   -4.5076687   -4.5076687   -2.9986289  0.040441829   -4.5076687    1.5090398      8192000 
  444000    1.0057743   -4.5071898   -4.5071898   -2.9985287  0.041151425   -4.5071898    1.5086611      8192000 
  445000    1.0061268     -4.50775     -4.50775   -2.9985601  0.040213311     -4.50775    1.5091899      8192000 
  446000    1.0062885   -4.5084819   -4.5084819   -2.9990495  0.039179516   -4.5084819    1.5094323      8192000 
  447000    1.0060335   -4.5078478   -4.5078478    -2.998798  0.041432256   -4.5078478    1.5090498      8192000 
  448000    1.0058572   -4.5077567   -4.5077567   -2.9989713  0.041156785   -4.5077567    1.5087855      8192000 
  449000    1.0057846   -4.5077802   -4.5077802   -2.9991037   0.04196615   -4.5077802    1.5086765      8192000 
  450000     1.006024   -4.5084468   -4.5084468   -2.9994112  0.039939646   -4.5084468    1.5090357      8192000 
  451000    1.0055076   -4.5069923   -4.5069923   -2.9987312   0.04045581   -4.5069923     1.508261      8192000 
  452000    1.0055548   -4.5078584   -4.5078584   -2.9995266  0.040790538   -4.5078584    1.5083318      8192000 
  453000    1.0057548   -4.5080963   -4.5080963   -2.9994645  0.041974795   -4.5080963    1.5086319      8192000 
  454000    1.0062406   -4.5087783   -4.5087783   -2.9994179  0.041081997   -4.5087783    1.5093605      8192000 
  455000    1.0059312   -4.5086329   -4.5086329   -2.9997365  0.041589765   -4.5086329    1.5088964      8192000 
  456000    1.0057467   -4.5084717   -4.5084717    -2.999852  0.043509865   -4.5084717    1.5086197      8192000 
  457000    1.0057251   -4.5084766   -4.5084766   -2.9998893  0.043948344   -4.5084766    1.5085873      8192000 
  458000    1.0056431   -4.5085859   -4.5085859   -3.0001215  0.041856439   -4.5085859    1.5084643      8192000 
  459000    1.0058045   -4.5088101   -4.5088101   -3.0001037  0.041589273   -4.5088101    1.5087064      8192000 
  460000    1.0057627   -4.5090054   -4.5090054   -3.0003617    0.0410877   -4.5090054    1.5086437      8192000 
  461000    1.0061385    -4.509933    -4.509933   -3.0007256  0.039286465    -4.509933    1.5092074      8192000 
  462000    1.0059122   -4.5090496   -4.5090496   -3.0001817  0.040858588   -4.5090496     1.508868      8192000 
  463000    1.0060298   -4.5094225   -4.5094225   -3.0003781  0.041532111   -4.5094225    1.5090444      8192000 
  464000    1.0060796   -4.5094853   -4.5094853   -3.0003662  0.041358264   -4.5094853     1.509119      8192000 
  465000     1.006341   -4.5100883   -4.5100883   -3.0005771  0.041348459   -4.5100883    1.5095111      8192000 
  466000    1.0060957    -4.509931    -4.509931   -3.0007878  0.042830651    -4.509931    1.5091432      8192000 
  467000    1.0067382   -4.5111356   -4.5111356   -3.0010286   0.04354463   -4.5111356    1.5101069      8192000 
  468000    1.0061923   -4.5101474   -4.5101474   -3.0008593  0.043977387   -4.5101474    1.5092881      8192000 
  469000    1.0064072   -4.5105947   -4.5105947   -3.0009843  0.042048723   -4.5105947    1.5096104      8192000 
  470000    1.0061852    -4.510497    -4.510497   -3.0012196  0.041960622    -4.510497    1.5092775      8192000 
  471000    1.0061959   -4.5108493   -4.5108493   -3.0015558  0.042745935   -4.5108493    1.5092935      8192000 
  472000    1.0057527   -4.5102172   -4.5102172   -3.0015885  0.042362812   -4.5102172    1.5086287      8192000 
  473000    1.0052141   -4.5092476   -4.5092476   -3.0014268  0.042105335   -4.5092476    1.5078208      8192000 
  474000    1.0053015   -4.5096016   -4.5096016   -3.0016497  0.042776351   -4.5096016    1.5079519      8192000 
  475000     1.005003     -4.50936     -4.50936   -3.0018559   0.04255049     -4.50936    1.5075041      8192000 
  476000    1.0051613   -4.5098262   -4.5098262   -3.0020846  0.040363701   -4.5098262    1.5077415      8192000 
  477000    1.0051693   -4.5096446   -4.5096446    -3.001891  0.042166977   -4.5096446    1.5077536      8192000 
  478000    1.0048791   -4.5091451   -4.5091451   -3.0018267  0.042930776   -4.5091451    1.5073183      8192000 
  479000    1.0053832   -4.5101325   -4.5101325   -3.0020581  0.038671149   -4.5101325    1.5080744      8192000 
  480000    1.0052555   -4.5094801   -4.5094801   -3.0015972   0.04221604   -4.5094801    1.5078829      8192000 
  481000    1.0049638    -4.509766    -4.509766   -3.0023206  0.042114595    -4.509766    1.5074453      8192000 
  482000    1.0051236   -4.5101818   -4.5101818   -3.0024967  0.041828248   -4.5101818    1.5076851      8192000 
  483000    1.0052713   -4.5106276   -4.5106276    -3.002721  0.041322718   -4.5106276    1.5079065      8192000 
  484000    1.0052283   -4.5103247   -4.5103247   -3.0024827  0.043305089   -4.5103247     1.507842      8192000 
  485000    1.0051953   -4.5105434   -4.5105434   -3.0027509  0.042856188   -4.5105434    1.5077925      8192000 
  486000    1.0052424   -4.5106908   -4.5106908   -3.0028275  0.043125351   -4.5106908    1.5078633      8192000 
  487000    1.0050723   -4.5106778   -4.5106778   -3.0030698  0.042340592   -4.5106778     1.507608      8192000 
  488000    1.0048959   -4.5106605   -4.5106605    -3.003317  0.041905229   -4.5106605    1.5073434      8192000 
  489000    1.0052107   -4.5107062   -4.5107062   -3.0028905  0.042237792   -4.5107062    1.5078157      8192000 
  490000    1.0050699   -4.5104095   -4.5104095    -3.002805  0.042739154   -4.5104095    1.5076045      8192000 
  491000    1.0046971   -4.5099808   -4.5099808   -3.0029355   0.04387881   -4.5099808    1.5070453      8192000 
  492000    1.0046951   -4.5106502   -4.5106502   -3.0036079  0.041456277   -4.5106502    1.5070423      8192000 
  493000    1.0042763   -4.5098879   -4.5098879   -3.0034739  0.043051499   -4.5098879     1.506414      8192000 
  494000    1.0047577   -4.5103462   -4.5103462   -3.0032101  0.043919394   -4.5103462    1.5071361      8192000 
  495000    1.0047752   -4.5105486   -4.5105486   -3.0033863  0.042952631   -4.5105486    1.5071624      8192000 
  496000     1.004449   -4.5105114   -4.5105114   -3.0038382  0.041079215   -4.5105114    1.5066732      8192000 
  497000    1.0047967   -4.5110836   -4.5110836    -3.003889  0.041678019   -4.5110836    1.5071946      8192000 
  498000    1.0045321   -4.5107893   -4.5107893   -3.0039915  0.042086983   -4.5107893    1.5067978      8192000 
  499000    1.0040528    -4.510238    -4.510238   -3.0041593  0.044260398    -4.510238    1.5060788      8192000 
  500000    1.0045819   -4.5108791   -4.5108791   -3.0040066  0.043994859   -4.5108791    1.5068725      8192000 
  501000    1.0046557   -4.5110654   -4.5110654   -3.0040823  0.044620349   -4.5110654    1.5069831      8192000 
  502000    1.0044769     -4.51106     -4.51106    -3.004345  0.042959402     -4.51106     1.506715      8192000 
  503000    1.0044927   -4.5111539   -4.5111539   -3.0044152  0.041233425   -4.5111539    1.5067387      8192000 
  504000    1.0045324   -4.5114356   -4.5114356   -3.0046374  0.041696547   -4.5114356    1.5067982      8192000 
  505000    1.0045603   -4.5117472   -4.5117472   -3.0049071  0.040062221   -4.5117472    1.5068401      8192000 
  506000    1.0039538    -4.510752    -4.510752   -3.0048217  0.043438061    -4.510752    1.5059304      8192000 
  507000    1.0042389   -4.5114458   -4.5114458   -3.0050879  0.042850837   -4.5114458     1.506358      8192000 
  508000    1.0045224   -4.5117486   -4.5117486   -3.0049654  0.043053762   -4.5117486    1.5067832      8192000 
  509000     1.004683    -4.511892    -4.511892   -3.0048679   0.04135698    -4.511892    1.5070241      8192000 
  510000    1.0045159   -4.5113937   -4.5113937   -3.0046202  0.042105821   -4.5113937    1.5067735      8192000 
  511000    1.0042757   -4.5107957   -4.5107957   -3.0043826  0.044776227   -4.5107957    1.5064131      8192000 
  512000    1.0045594   -4.5122529   -4.5122529   -3.0054142   0.04136872   -4.5122529    1.5068387      8192000 
  513000    1.0045987   -4.5119712   -4.5119712   -3.0050735   0.04210932   -4.5119712    1.5068977      8192000 
  514000    1.0042294   -4.5115174   -4.5115174   -3.0051737  0.042620193   -4.5115174    1.5063437      8192000 
  515000    1.0043253   -4.5119315   -4.5119315   -3.0054439  0.041762674   -4.5119315    1.5064876      8192000 
  516000    1.0036628   -4.5115423   -4.5115423   -3.0060484  0.041421503   -4.5115423    1.5054938      8192000 
  517000    1.0043633   -4.5119618   -4.5119618   -3.0054172  0.042686275   -4.5119618    1.5065446      8192000 
  518000    1.0041675   -4.5119087   -4.5119087   -3.0056578  0.041603803   -4.5119087    1.5062508      8192000 
  519000     1.003843   -4.5116607   -4.5116607   -3.0058965   0.04197094   -4.5116607    1.5057642      8192000 
  520000    1.0044757   -4.5124733   -4.5124733   -3.0057602  0.039886381   -4.5124733    1.5067131      8192000 
  521000    1.0034038   -4.5110838   -4.5110838   -3.0059784  0.041702871   -4.5110838    1.5051054      8192000 
  522000    1.0035042   -4.5113523   -4.5113523   -3.0060964  0.042023981   -4.5113523    1.5052559      8192000 
  523000     1.003766   -4.5117811   -4.5117811   -3.0061325  0.041016432   -4.5117811    1.5056486      8192000 
  524000     1.004242   -4.5127844   -4.5127844   -3.0064218  0.038416915   -4.5127844    1.5063626      8192000 
  525000    1.0042389    -4.512289    -4.512289    -3.005931  0.041487451    -4.512289    1.5063579      8192000 
  526000    1.0035227   -4.5113612   -4.5113612   -3.0060776  0.043879181   -4.5113612    1.5052836      8192000 
  527000    1.0036642   -4.5118141   -4.5118141   -3.0063181  0.041148924   -4.5118141     1.505496      8192000 
  528000    1.0043204   -4.5124055   -4.5124055   -3.0059253  0.041894877   -4.5124055    1.5064802      8192000 
  529000    1.0041807   -4.5128545   -4.5128545   -3.0065838   0.04249555   -4.5128545    1.5062707      8192000 
  530000    1.0039717   -4.5126688   -4.5126688   -3.0067117  0.043034691   -4.5126688    1.5059572      8192000 
  531000    1.0033574   -4.5119033   -4.5119033   -3.0068675  0.044571135   -4.5119033    1.5050357      8192000 
  532000    1.0041604   -4.5132697   -4.5132697   -3.0070295  0.040244927   -4.5132697    1.5062402      8192000 
  533000    1.0039276    -4.512487    -4.512487    -3.006596  0.042233122    -4.512487     1.505891      8192000 
  534000    1.0035787   -4.5124179   -4.5124179   -3.0070502  0.043444483   -4.5124179    1.5053677      8192000 
  535000    1.0040033   -4.5129148   -4.5129148   -3.0069103  0.043041633   -4.5129148    1.5060046      8192000 
  536000    1.0031942   -4.5120737   -4.5120737   -3.0072828  0.043178486   -4.5120737    1.5047909      8192000 
  537000    1.0038146   -4.5129805   -4.5129805    -3.007259  0.042569711   -4.5129805    1.5057215      8192000 
  538000    1.0034797   -4.5123886   -4.5123886   -3.0071694  0.043892061   -4.5123886    1.5052192      8192000 
  539000    1.0035251   -4.5131166   -4.5131166   -3.0078294  0.043093936   -4.5131166    1.5052873      8192000 
  540000    1.0034422   -4.5130124   -4.5130124   -3.0078495  0.043367828   -4.5130124    1.5051629      8192000 
  541000     1.003007   -4.5124142   -4.5124142   -3.0079041  0.045060978   -4.5124142    1.5045101      8192000 
  542000    1.0034691   -4.5131747   -4.5131747   -3.0079715  0.042684231   -4.5131747    1.5052032      8192000 
  543000    1.0030853   -4.5127409   -4.5127409   -3.0081134  0.043946448   -4.5127409    1.5046276      8192000 
  544000     1.003756   -4.5135326   -4.5135326    -3.007899  0.041377319   -4.5135326    1.5056336      8192000 
  545000    1.0031437   -4.5126762   -4.5126762   -3.0079611  0.045435752   -4.5126762    1.5047151      8192000 
  546000    1.0036394   -4.5134205   -4.5134205   -3.0079618   0.04386134   -4.5134205    1.5054587      8192000 
  547000    1.0038187   -4.5139238   -4.5139238   -3.0081961   0.04442598   -4.5139238    1.5057277      8192000 
  548000    1.0037161   -4.5140289   -4.5140289   -3.0084551  0.043216836   -4.5140289    1.5055737      8192000 
  549000    1.0035214   -4.5135007   -4.5135007   -3.0082189  0.044636569   -4.5135007    1.5052818      8192000 
  550000    1.0037238   -4.5141084   -4.5141084   -3.0085231  0.041723403   -4.5141084    1.5055853      8192000 
  551000     1.002933   -4.5127458   -4.5127458   -3.0083467  0.042954396   -4.5127458    1.5043992      8192000 
  552000    1.0031399   -4.5132126   -4.5132126   -3.0085032  0.040542204   -4.5132126    1.5047094      8192000 
  553000     1.003195   -4.5136211   -4.5136211    -3.008829  0.040536597   -4.5136211    1.5047922      8192000 
  554000    1.0032406   -4.5132982   -4.5132982   -3.0084377  0.042528693   -4.5132982    1.5048605      8192000 
  555000    1.0034261   -4.5138548   -4.5138548    -3.008716   0.04367372   -4.5138548    1.5051388      8192000 
  556000    1.0037601   -4.5140943   -4.5140943   -3.0084545  0.041035052   -4.5140943    1.5056397      8192000 
  557000    1.0029873   -4.5136894   -4.5136894   -3.0092088  0.038827395   -4.5136894    1.5044806      8192000 
  558000    1.0030677   -4.5133667   -4.5133667   -3.0087656  0.041275335   -4.5133667    1.5046011      8192000 
  559000    1.0028787   -4.5134042   -4.5134042   -3.0090865  0.042832585   -4.5134042    1.5043177      8192000 
  560000    1.0027999   -4.5136808   -4.5136808   -3.0094813   0.04076117   -4.5136808    1.5041995      8192000 
  561000    1.0026125   -4.5130523   -4.5130523   -3.0091339  0.042308703   -4.5130523    1.5039184      8192000 
  562000    1.0023521   -4.5131143   -4.5131143   -3.0095865  0.042446035   -4.5131143    1.5035278      8192000 
  563000    1.0026081   -4.5136403   -4.5136403   -3.0097285  0.042545248   -4.5136403    1.5039118      8192000 
  564000     1.002935   -4.5139645   -4.5139645   -3.0095624  0.043482627   -4.5139645    1.5044021      8192000 
  565000    1.0033386   -4.5148692   -4.5148692   -3.0098618   0.04110169   -4.5148692    1.5050075      8192000 
  566000    1.0029361   -4.5142271   -4.5142271   -3.0098233  0.044229714   -4.5142271    1.5044038      8192000 
  567000    1.0030753   -4.5145133   -4.5145133   -3.0099007  0.041648571   -4.5145133    1.5046126      8192000 
  568000    1.0028225   -4.5140777   -4.5140777   -3.0098444  0.044177205   -4.5140777    1.5042333      8192000 
  569000    1.0025562   -4.5136004   -4.5136004   -3.0097665  0.043309972   -4.5136004    1.5038339      8192000 
  570000    1.0028375   -4.5144788   -4.5144788   -3.0102229  0.043107095   -4.5144788    1.5042559      8192000 
  571000    1.0023497    -4.513847    -4.513847   -3.0103228  0.043949339    -4.513847    1.5035242      8192000 
  572000    1.0028729   -4.5145634   -4.5145634   -3.0102544  0.042074947   -4.5145634     1.504309      8192000 
  573000    1.0030267   -4.5148153   -4.5148153   -3.0102756  0.041676541   -4.5148153    1.5045397      8192000 
  574000    1.0026358   -4.5144809   -4.5144809   -3.0105275  0.044143304   -4.5144809    1.5039534      8192000 
  575000    1.0029565   -4.5150441   -4.5150441   -3.0106097  0.042272077   -4.5150441    1.5044344      8192000 
  576000    1.0024538   -4.5146724   -4.5146724    -3.010992  0.042088667   -4.5146724    1.5036804      8192000 
  577000    1.0020741   -4.5138963   -4.5138963   -3.0107855  0.044031846   -4.5138963    1.5031108      8192000 
  578000    1.0025823   -4.5147909   -4.5147909   -3.0109179  0.042886989   -4.5147909     1.503873      8192000 
  579000    1.0023624   -4.5153194   -4.5153194   -3.0117762  0.042923375   -4.5153194    1.5035432      8192000 
  580000    1.0028244    -4.515711    -4.515711   -3.0114749  0.041563837    -4.515711    1.5042362      8192000 
  581000    1.0020899   -4.5148945   -4.5148945     -3.01176  0.042029675   -4.5148945    1.5031345      8192000 
  582000    1.0019827   -4.5143568   -4.5143568   -3.0113831  0.042949549   -4.5143568    1.5029737      8192000 
  583000    1.0024355   -4.5152628   -4.5152628   -3.0116099  0.042130976   -4.5152628    1.5036529      8192000 
  584000    1.0021508   -4.5150283   -4.5150283   -3.0118025  0.043557367   -4.5150283    1.5032258      8192000 
  585000    1.0022834   -4.5154781   -4.5154781   -3.0120534  0.042488003   -4.5154781    1.5034247      8192000 
  586000    1.0024353   -4.5156997   -4.5156997    -3.012047  0.042097333   -4.5156997    1.5036526      8192000 
  587000    1.0022418   -4.5155525   -4.5155525   -3.0121901  0.043401936   -4.5155525    1.5033624      8192000 
  588000    1.0025632   -4.5159893   -4.5159893   -3.0121448  0.042848892   -4.5159893    1.5038445      8192000 
  589000    1.0023414   -4.5154856   -4.5154856   -3.0119739   0.04471157   -4.5154856    1.5035117      8192000 
  590000    1.0023105   -4.5159817   -4.5159817   -3.0125162  0.042121828   -4.5159817    1.5034654      8192000 
  591000    1.0019598   -4.5151854   -4.5151854   -3.0122462  0.045068798   -4.5151854    1.5029393      8192000 
  592000    1.0016545   -4.5149771   -4.5149771   -3.0124957  0.045567105   -4.5149771    1.5024814      8192000 
  593000    1.0017764   -4.5155854   -4.5155854   -3.0129211  0.041401301   -4.5155854    1.5026642      8192000 
  594000    1.0018882   -4.5152086   -4.5152086   -3.0123767  0.043438937   -4.5152086     1.502832      8192000 
  595000    1.0021931   -4.5158639   -4.5158639   -3.0125747  0.042129879   -4.5158639    1.5032892      8192000 
  596000    1.0019978   -4.5157491   -4.5157491   -3.0127528  0.042897698   -4.5157491    1.5029963      8192000 
  597000    1.0021877   -4.5163375   -4.5163375   -3.0130564  0.043142229   -4.5163375    1.5032811      8192000 
  598000    1.0025862   -4.5168101   -4.5168101   -3.0129312  0.042262475   -4.5168101     1.503879      8192000 
  599000    1.0020982   -4.5163138   -4.5163138   -3.0131668  0.042928539   -4.5163138     1.503147      8192000 
  600000    1.0014065   -4.5158038   -4.5158038   -3.0136944  0.043853232   -4.5158038    1.5021095      8192000 
  601000    1.0017058   -4.5163031   -4.5163031   -3.0137447  0.043436274   -4.5163031    1.5025584      8192000 
  602000    1.0017745   -4.5166709   -4.5166709   -3.0140096   0.04205842   -4.5166709    1.5026614      8192000 
  603000    1.0022093   -4.5169387   -4.5169387   -3.0136251  0.041288052   -4.5169387    1.5033136      8192000 
  604000     1.001669   -4.5164298   -4.5164298   -3.0139267  0.044776043   -4.5164298    1.5025032      8192000 
  605000    1.0017016   -4.5162057   -4.5162057   -3.0136537  0.046559047   -4.5162057    1.5025521      8192000 
  606000    1.0024582   -4.5171057   -4.5171057   -3.0134187  0.043222971   -4.5171057    1.5036869      8192000 
  607000    1.0017634   -4.5164491   -4.5164491   -3.0138044  0.042162701   -4.5164491    1.5026448      8192000 
  608000    1.0018215   -4.5164685   -4.5164685   -3.0137367  0.044830819   -4.5164685    1.5027318      8192000 
  609000    1.0021531   -4.5169302   -4.5169302    -3.013701  0.043101615   -4.5169302    1.5032293      8192000 
  610000    1.0021316   -4.5169336   -4.5169336   -3.0137367  0.043792308   -4.5169336     1.503197      8192000 
  611000    1.0015633   -4.5168487   -4.5168487   -3.0145041  0.043312209   -4.5168487    1.5023445      8192000 
  612000    1.0015154   -4.5166555   -4.5166555   -3.0143827  0.043197519   -4.5166555    1.5022728      8192000 
  613000    1.0019557   -4.5174137   -4.5174137   -3.0144805  0.043409268   -4.5174137    1.5029332      8192000 
  614000    1.0018583   -4.5170268   -4.5170268   -3.0142398  0.044515011   -4.5170268     1.502787      8192000 
  615000      1.00207   -4.5176681   -4.5176681   -3.0145635  0.043633952   -4.5176681    1.5031046      8192000 
  616000    1.0016242    -4.517348    -4.517348    -3.014912  0.043374668    -4.517348     1.502436      8192000 
  617000    1.0019928   -4.5179041   -4.5179041   -3.0149153  0.042569742   -4.5179041    1.5029888      8192000 
  618000    1.0011887   -4.5172752   -4.5172752   -3.0154925  0.042676539   -4.5172752    1.5017826      8192000 
  619000    1.0012641   -4.5171728   -4.5171728    -3.015277  0.043374316   -4.5171728    1.5018958      8192000 
  620000    1.0021153   -4.5180689   -4.5180689   -3.0148963  0.045476091   -4.5180689    1.5031726      8192000 
  621000    1.0018179   -4.5175709   -4.5175709   -3.0148444  0.045168015   -4.5175709    1.5027264      8192000 
  622000    1.0017384   -4.5176016   -4.5176016   -3.0149943  0.044633657   -4.5176016    1.5026072      8192000 
  623000     1.001601   -4.5178137   -4.5178137   -3.0154125   0.04505661   -4.5178137    1.5024011      8192000 
  624000    1.0012759   -4.5173105   -4.5173105   -3.0153971  0.045404705   -4.5173105    1.5019134      8192000 
  625000    1.0011123   -4.5169454   -4.5169454   -3.0152773    0.0458478   -4.5169454    1.5016681      8192000 
  626000     1.001477   -4.5179467   -4.5179467   -3.0157315  0.043251971   -4.5179467    1.5022152      8192000 
  627000    1.0020512   -4.5183948   -4.5183948   -3.0153185  0.041434266   -4.5183948    1.5030764      8192000 
  628000    1.0008365   -4.5168893   -4.5168893    -3.015635  0.044201576   -4.5168893    1.5012544      8192000 
  629000    1.0007691   -4.5172093   -4.5172093    -3.016056  0.042132539   -4.5172093    1.5011533      8192000 
  630000    1.0005191   -4.5163721   -4.5163721   -3.0155938    0.0425277   -4.5163721    1.5007783      8192000 
  631000    1.0006733   -4.5171583   -4.5171583   -3.0161487   0.04096825   -4.5171583    1.5010095      8192000 
  632000    1.0001985   -4.5160427   -4.5160427   -3.0157453  0.045173506   -4.5160427    1.5002974      8192000 
  633000    1.0008749   -4.5172621   -4.5172621   -3.0159502  0.042657971   -4.5172621    1.5013119      8192000 
  634000     1.001384   -4.5181689   -4.5181689   -3.0160933  0.042434234   -4.5181689    1.5020757      8192000 
  635000     1.001363    -4.518021    -4.518021   -3.0159769  0.044273361    -4.518021    1.5020441      8192000 
  636000    1.0012591   -4.5180368   -4.5180368   -3.0161485  0.042935967   -4.5180368    1.5018883      8192000 
  637000    1.0009154   -4.5179016   -4.5179016   -3.0165289  0.043203936   -4.5179016    1.5013727      8192000 
  638000     1.001398   -4.5182382   -4.5182382   -3.0161415  0.044734296   -4.5182382    1.5020966      8192000 
  639000    1.0015109   -4.5179913   -4.5179913   -3.0157253  0.044239907   -4.5179913     1.502266      8192000 
  640000    1.0019383    -4.519053    -4.519053   -3.0161459   0.04521872    -4.519053    1.5029071      8192000 
  641000    1.0017343    -4.519018    -4.519018   -3.0164169  0.043480249    -4.519018    1.5026011      8192000 
  642000    1.0022754   -4.5194917   -4.5194917    -3.016079  0.043514319   -4.5194917    1.5034127      8192000 
  643000    1.0023007   -4.5201369   -4.5201369   -3.0166861  0.044273686   -4.5201369    1.5034508      8192000 
  644000    1.0020084   -4.5197971   -4.5197971   -3.0167849  0.045298528   -4.5197971    1.5030122      8192000 
  645000     1.001732   -4.5195825   -4.5195825   -3.0169849  0.044364839   -4.5195825    1.5025976      8192000 
  646000    1.0015953   -4.5194977   -4.5194977   -3.0171051  0.045027962   -4.5194977    1.5023926      8192000 
  647000    1.0013362   -4.5190897   -4.5190897   -3.0170857  0.045437505   -4.5190897     1.502004      8192000 
  648000    1.0007664   -4.5181001   -4.5181001   -3.0169508  0.046544478   -4.5181001    1.5011492      8192000 
  649000    1.0007211   -4.5179299   -4.5179299   -3.0168487  0.044503926   -4.5179299    1.5010813      8192000 
  650000    1.0010887   -4.5189314   -4.5189314   -3.0172987  0.043922622   -4.5189314    1.5016327      8192000 
  651000    1.0008997   -4.5182498   -4.5182498   -3.0169005  0.043660945   -4.5182498    1.5013492      8192000 
  652000    1.0006093   -4.5183532   -4.5183532   -3.0174397  0.041529318   -4.5183532    1.5009135      8192000 
  653000     1.000899   -4.5189878   -4.5189878   -3.0176398   0.04137056   -4.5189878    1.5013481      8192000 
  654000    1.0010165   -4.5192164   -4.5192164    -3.017692  0.042239163   -4.5192164    1.5015244      8192000 
  655000    1.0008223   -4.5194902   -4.5194902   -3.0182571  0.041847934   -4.5194902    1.5012331      8192000 
  656000    1.0008984   -4.5193872   -4.5193872     -3.01804  0.044183978   -4.5193872    1.5013472      8192000 
  657000    1.0008222   -4.5195219   -4.5195219   -3.0182889  0.044781351   -4.5195219    1.5012329      8192000 
  658000    1.0009524   -4.5195225   -4.5195225   -3.0180944  0.044602578   -4.5195225    1.5014282      8192000 
  659000    1.0014096   -4.5203737   -4.5203737   -3.0182596  0.043291864   -4.5203737     1.502114      8192000 
  660000     1.001133   -4.5203923   -4.5203923   -3.0186932  0.045148115   -4.5203923    1.5016991      8192000 
  661000    1.0010971   -4.5206892   -4.5206892   -3.0190439  0.047886696   -4.5206892    1.5016452      8192000 
  662000    1.0021441   -4.5219734   -4.5219734   -3.0187576  0.044460546   -4.5219734    1.5032157      8192000 
  663000    1.0017356   -4.5214367   -4.5214367   -3.0188336   0.04644541   -4.5214367    1.5026031      8192000 
  664000    1.0008612   -4.5204018   -4.5204018   -3.0191105  0.045545182   -4.5204018    1.5012914      8192000 
  665000    1.0010108   -4.5206012   -4.5206012   -3.0190854  0.046321848   -4.5206012    1.5015158      8192000 
  666000    1.0012775   -4.5209664   -4.5209664   -3.0190505  0.045015387   -4.5209664    1.5019158      8192000 
  667000    1.0013074   -4.5209764   -4.5209764   -3.0190157  0.044717029   -4.5209764    1.5019607      8192000 
  668000    1.0008587   -4.5206093   -4.5206093   -3.0193216  0.045359565   -4.5206093    1.5012877      8192000 
  669000    1.0008046   -4.5204119   -4.5204119   -3.0192054   0.04452785   -4.5204119    1.5012066      8192000 
  670000    1.0004012   -4.5202691   -4.5202691   -3.0196677  0.046593859   -4.5202691    1.5006014      8192000 
  671000    1.0013311   -4.5212541   -4.5212541   -3.0192579  0.043408637   -4.5212541    1.5019962      8192000 
  672000    1.0005174   -4.5201755   -4.5201755   -3.0193998  0.047152786   -4.5201755    1.5007757      8192000 
  673000    1.0006721   -4.5209425   -4.5209425   -3.0199348  0.043943438   -4.5209425    1.5010078      8192000 
  674000    1.0004369   -4.5200548   -4.5200548   -3.0193998  0.046666712   -4.5200548     1.500655      8192000 
  675000    1.0008298   -4.5206171   -4.5206171   -3.0193727  0.044896848   -4.5206171    1.5012444      8192000 
  676000    1.0010802   -4.5214342   -4.5214342   -3.0198143   0.04336506   -4.5214342    1.5016199      8192000 
  677000    1.0005922   -4.5207571   -4.5207571   -3.0198692   0.04559311   -4.5207571    1.5008879      8192000 
  678000    1.0003477   -4.5202926   -4.5202926   -3.0197715  0.047468657   -4.5202926    1.5005212      8192000 
  679000    1.0005737   -4.5209228   -4.5209228   -3.0200625  0.045272818   -4.5209228    1.5008602      8192000 
  680000    1.0004301   -4.5211549   -4.5211549   -3.0205102  0.045470012   -4.5211549    1.5006447      8192000 
  681000    1.0008372   -4.5213973   -4.5213973    -3.020142   0.04556275   -4.5213973    1.5012554      8192000 
  682000    1.0008442   -4.5214904   -4.5214904   -3.0202244  0.046764342   -4.5214904     1.501266      8192000 
  683000     1.000791   -4.5218326   -4.5218326   -3.0206465  0.044094893   -4.5218326    1.5011862      8192000 
  684000    1.0013931   -4.5223064   -4.5223064   -3.0202172  0.044766062   -4.5223064    1.5020892      8192000 
  685000    1.0008925   -4.5216773   -4.5216773   -3.0203389  0.046686713   -4.5216773    1.5013384      8192000 
  686000    1.0008642   -4.5215743   -4.5215743   -3.0202784   0.04732289   -4.5215743    1.5012959      8192000 
  687000    1.0013955   -4.5223614   -4.5223614   -3.0202686  0.045938326   -4.5223614    1.5020929      8192000 
[...]
  837000   0.99976648   -4.5289112   -4.5289112   -3.0292618  0.046871877   -4.5289112    1.4996493      8192000 
  838000   0.99948066   -4.5287259   -4.5287259   -3.0295053  0.047616891   -4.5287259    1.4992206      8192000 
  839000   0.99971101   -4.5291349   -4.5291349   -3.0295687  0.045248968   -4.5291349    1.4995661      8192000 
  840000   0.99937728   -4.5285469   -4.5285469   -3.0294813  0.044533301   -4.5285469    1.4990655      8192000 
  841000   0.99912199   -4.5285654   -4.5285654   -3.0298828   0.04444372   -4.5285654    1.4986826      8192000 
  842000   0.99870873   -4.5277939   -4.5277939   -3.0297312  0.045222119   -4.5277939    1.4980627      8192000 
  843000   0.99872814   -4.5278756   -4.5278756   -3.0297838  0.044625618   -4.5278756    1.4980918      8192000 
  844000    0.9986138   -4.5279525   -4.5279525   -3.0300322  0.044708495   -4.5279525    1.4979203      8192000 
  845000   0.99849287   -4.5275993   -4.5275993   -3.0298603  0.045041762   -4.5275993    1.4977389      8192000 
  846000   0.99834431   -4.5279296   -4.5279296   -3.0304135   0.04324976   -4.5279296    1.4975161      8192000 
  847000   0.99869936   -4.5276923   -4.5276923   -3.0296436  0.045887492   -4.5276923    1.4980487      8192000 
  848000   0.99918693   -4.5288057   -4.5288057   -3.0300256  0.045262641   -4.5288057      1.49878      8192000 
  849000   0.99907229    -4.528366    -4.528366   -3.0297579  0.045476948    -4.528366    1.4986081      8192000 
  850000   0.99861609   -4.5280897   -4.5280897   -3.0301659  0.046934038   -4.5280897    1.4979238      8192000 
  851000   0.99892937   -4.5283555   -4.5283555   -3.0299618  0.045809405   -4.5283555    1.4983937      8192000 
  852000   0.99928378   -4.5288502   -4.5288502   -3.0299249  0.044349702   -4.5288502    1.4989253      8192000 
  853000   0.99823652   -4.5275263   -4.5275263   -3.0301719  0.046975835   -4.5275263    1.4973544      8192000 
  854000   0.99871361    -4.528058    -4.528058    -3.029988  0.048201784    -4.528058      1.49807      8192000 
  855000   0.99869098   -4.5283836   -4.5283836   -3.0303475  0.045533676   -4.5283836    1.4980361      8192000 
  856000   0.99869469   -4.5285591   -4.5285591   -3.0305175  0.046022016   -4.5285591    1.4980417      8192000 
  857000   0.99896417   -4.5290819   -4.5290819    -3.030636  0.046022635   -4.5290819    1.4984459      8192000 
  858000   0.99902521   -4.5288652   -4.5288652   -3.0303277  0.046216558   -4.5288652    1.4985374      8192000 
  859000   0.99917677   -4.5290536   -4.5290536   -3.0302888  0.045868783   -4.5290536    1.4987648      8192000 
  860000   0.99905352   -4.5289494   -4.5289494   -3.0303695  0.046625214   -4.5289494    1.4985799      8192000 
  861000   0.99803117   -4.5276301   -4.5276301   -3.0305837  0.047728094   -4.5276301    1.4970464      8192000 
  862000   0.99883418   -4.5288697   -4.5288697   -3.0306188   0.04455841   -4.5288697    1.4982509      8192000 
  863000   0.99925058    -4.529147    -4.529147   -3.0302715  0.045118628    -4.529147    1.4988755      8192000 
  864000   0.99875829   -4.5287871   -4.5287871     -3.03065  0.047876529   -4.5287871    1.4981371      8192000 
  865000   0.99927257   -4.5293008   -4.5293008   -3.0303923  0.046869758   -4.5293008    1.4989085      8192000 
  866000   0.99890248   -4.5292859   -4.5292859   -3.0309326  0.047180198   -4.5292859    1.4983533      8192000 
  867000   0.99888109   -4.5292669   -4.5292669   -3.0309456  0.047850645   -4.5292669    1.4983213      8192000 
  868000   0.99899518   -4.5293308   -4.5293308   -3.0308384  0.045719595   -4.5293308    1.4984924      8192000 
  869000   0.99873657   -4.5291039   -4.5291039   -3.0309994  0.047164358   -4.5291039    1.4981045      8192000 
  870000   0.99883913   -4.5293547   -4.5293547   -3.0310964  0.047330167   -4.5293547    1.4982583      8192000 
  871000   0.99856253   -4.5293616   -4.5293616   -3.0315181   0.04695552   -4.5293616    1.4978434      8192000 
  872000   0.99921237   -4.5299373   -4.5299373   -3.0311191   0.04539789   -4.5299373    1.4988182      8192000 
  873000   0.99821947   -4.5287349   -4.5287349   -3.0314061  0.048331041   -4.5287349    1.4973288      8192000 
  874000   0.99869906   -4.5294759   -4.5294759   -3.0314277  0.046851536   -4.5294759    1.4980482      8192000 
  875000   0.99898691   -4.5301604   -4.5301604   -3.0316804  0.047614336   -4.5301604      1.49848      8192000 
  876000   0.99869252   -4.5301678   -4.5301678   -3.0321294  0.044744848   -4.5301678    1.4980384      8192000 
  877000   0.99893476   -4.5301686   -4.5301686   -3.0317668  0.047166377   -4.5301686    1.4984018      8192000 
  878000   0.99860372   -4.5296412   -4.5296412    -3.031736  0.048967358   -4.5296412    1.4979052      8192000 
  879000   0.99905379   -4.5306077   -4.5306077   -3.0320274  0.045610074   -4.5306077    1.4985803      8192000 
  880000   0.99913366   -4.5304159   -4.5304159   -3.0317158  0.046983568   -4.5304159    1.4987001      8192000 
  881000   0.99888137    -4.530274    -4.530274   -3.0319523  0.045075827    -4.530274    1.4983217      8192000 
  882000   0.99897938   -4.5303943   -4.5303943   -3.0319256  0.044686704   -4.5303943    1.4984687      8192000 
  883000   0.99828296   -4.5295242   -4.5295242   -3.0321001  0.048482368   -4.5295242    1.4974241      8192000 
  884000   0.99892576   -4.5304695   -4.5304695   -3.0320812  0.046176578   -4.5304695    1.4983883      8192000 
  885000   0.99852436   -4.5301588   -4.5301588   -3.0323727  0.047913196   -4.5301588    1.4977862      8192000 
  886000    0.9982816   -4.5299737   -4.5299737   -3.0325516  0.044795888   -4.5299737     1.497422      8192000 
  887000   0.99783801   -4.5291663   -4.5291663   -3.0324097  0.046369231   -4.5291663    1.4967566      8192000 
  888000   0.99865102   -4.5303258   -4.5303258   -3.0323496  0.043637922   -4.5303258    1.4979762      8192000 
  889000   0.99818357   -4.5295069   -4.5295069   -3.0322319  0.044339066   -4.5295069     1.497275      8192000 
  890000   0.99842364   -4.5295679   -4.5295679   -3.0319328  0.046239324   -4.5295679    1.4976351      8192000 
  891000   0.99846779   -4.5303201   -4.5303201   -3.0326188  0.045354635   -4.5303201    1.4977013      8192000 
  892000   0.99855551   -4.5304689   -4.5304689    -3.032636  0.043979133   -4.5304689    1.4978329      8192000 
  893000   0.99840583   -4.5301355   -4.5301355   -3.0325271  0.046084569   -4.5301355    1.4976084      8192000 
  894000   0.99869042   -4.5301564   -4.5301564   -3.0321211  0.046159666   -4.5301564    1.4980353      8192000 
  895000   0.99852326   -4.5303788   -4.5303788   -3.0325943   0.04708262   -4.5303788    1.4977845      8192000 
  896000    0.9986042   -4.5304885   -4.5304885   -3.0325826  0.045158546   -4.5304885    1.4979059      8192000 
  897000   0.99863661   -4.5305235   -4.5305235    -3.032569  0.045777597   -4.5305235    1.4979545      8192000 
  898000   0.99846514   -4.5302202   -4.5302202   -3.0325228  0.048997882   -4.5302202    1.4976973      8192000 
  899000   0.99868927   -4.5305599   -4.5305599   -3.0325264  0.045685809   -4.5305599    1.4980335      8192000 
  900000   0.99813865   -4.5301322   -4.5301322   -3.0329246  0.047163538   -4.5301322    1.4972076      8192000 
  901000   0.99925966   -4.5318159   -4.5318159   -3.0329268  0.043713324   -4.5318159    1.4988891      8192000 
  902000   0.99935039   -4.5319158   -4.5319158   -3.0328906   0.04420386   -4.5319158    1.4990252      8192000 
  903000    0.9993594   -4.5316965   -4.5316965   -3.0326578  0.047778625   -4.5316965    1.4990387      8192000 
  904000   0.99910269   -4.5312099   -4.5312099   -3.0325562  0.045982947   -4.5312099    1.4986537      8192000 
  905000   0.99879014   -4.5306786   -4.5306786   -3.0324937  0.048046067   -4.5306786    1.4981848      8192000 
  906000   0.99892332   -4.5313377   -4.5313377   -3.0329531  0.046439432   -4.5313377    1.4983846      8192000 
  907000   0.99829093   -4.5306196   -4.5306196   -3.0331836  0.047865808   -4.5306196     1.497436      8192000 
  908000   0.99839969   -4.5311273   -4.5311273   -3.0335282   0.04488565   -4.5311273    1.4975992      8192000 
  909000   0.99806046   -4.5301716   -4.5301716   -3.0330813  0.046559128   -4.5301716    1.4970903      8192000 
  910000   0.99777401   -4.5299389   -4.5299389   -3.0332782  0.045960154   -4.5299389    1.4966606      8192000 
  911000   0.99855315   -4.5307186   -4.5307186   -3.0328892  0.045391387   -4.5307186    1.4978294      8192000 
  912000   0.99834082    -4.530633    -4.530633   -3.0331221  0.044963115    -4.530633    1.4975109      8192000 
  913000   0.99856972   -4.5310155   -4.5310155   -3.0331613  0.045028289   -4.5310155    1.4978542      8192000 
  914000   0.99890799    -4.531438    -4.531438   -3.0330764  0.045446539    -4.531438    1.4983616      8192000 
  915000   0.99796649   -4.5301855   -4.5301855   -3.0332362  0.047015305   -4.5301855    1.4969494      8192000 
  916000   0.99773905   -4.5298432   -4.5298432    -3.033235  0.048046726   -4.5298432    1.4966082      8192000 
  917000   0.99837015   -4.5310862   -4.5310862   -3.0335314  0.045192731   -4.5310862    1.4975549      8192000 
  918000   0.99848684    -4.531022    -4.531022   -3.0332921  0.047086687    -4.531022    1.4977299      8192000 
  919000   0.99832174   -4.5307008   -4.5307008   -3.0332185  0.047833935   -4.5307008    1.4974822      8192000 
  920000   0.99918294   -4.5317778   -4.5317778   -3.0330038  0.043881095   -4.5317778     1.498774      8192000 
  921000   0.99834697   -4.5307972   -4.5307972   -3.0332771  0.046770994   -4.5307972    1.4975201      8192000 
  922000    0.9985609   -4.5310558   -4.5310558   -3.0332149  0.047448241   -4.5310558     1.497841      8192000 
  923000   0.99820981   -4.5307213   -4.5307213    -3.033407  0.047676952   -4.5307213    1.4973143      8192000 
  924000   0.99844524   -4.5305812   -4.5305812   -3.0329138  0.048203203   -4.5305812    1.4976675      8192000 
  925000   0.99877257   -4.5316104   -4.5316104   -3.0334519  0.046705904   -4.5316104    1.4981585      8192000 
  926000   0.99883216   -4.5318072   -4.5318072   -3.0335594  0.046504737   -4.5318072    1.4982479      8192000 
  927000   0.99837211   -4.5311216   -4.5311216   -3.0335638  0.048743147   -4.5311216    1.4975578      8192000 
  928000   0.99847013   -4.5313127   -4.5313127   -3.0336078  0.045607827   -4.5313127    1.4977048      8192000 
  929000   0.99826259   -4.5313136   -4.5313136   -3.0339201  0.045166445   -4.5313136    1.4973935      8192000 
  930000    0.9978107   -4.5305056   -4.5305056   -3.0337899  0.046716914   -4.5305056    1.4967157      8192000 
  931000   0.99805323   -4.5307019   -4.5307019   -3.0336224  0.046254379   -4.5307019    1.4970795      8192000 
  932000   0.99802971   -4.5307021   -4.5307021   -3.0336579  0.045985776   -4.5307021    1.4970442      8192000 
  933000   0.99810342   -4.5310456   -4.5310456   -3.0338909   0.04487182   -4.5310456    1.4971548      8192000 
  934000    0.9981884   -4.5311603   -4.5311603   -3.0338781  0.045132773   -4.5311603    1.4972822      8192000 
  935000   0.99866688   -4.5316942   -4.5316942   -3.0336942  0.042874475   -4.5316942    1.4979999      8192000 
  936000   0.99833372   -4.5307912   -4.5307912    -3.033291  0.045024111   -4.5307912    1.4975002      8192000 
  937000    0.9978075   -4.5303849   -4.5303849    -3.033674  0.047829891   -4.5303849    1.4967109      8192000 
  938000   0.99829742   -4.5309647   -4.5309647   -3.0335189   0.04637357   -4.5309647    1.4974458      8192000 
  939000   0.99839566   -4.5312725   -4.5312725   -3.0336794  0.046101281   -4.5312725    1.4975931      8192000 
  940000   0.99853421   -4.5311791   -4.5311791   -3.0333781  0.045248897   -4.5311791     1.497801      8192000 
  941000   0.99860872   -4.5312813   -4.5312813   -3.0333686  0.047298498   -4.5312813    1.4979127      8192000 
  942000   0.99880899   -4.5315729   -4.5315729   -3.0333598  0.047314689   -4.5315729    1.4982131      8192000 
  943000   0.99869222   -4.5318205   -4.5318205   -3.0337825  0.046829471   -4.5318205     1.498038      8192000 
  944000   0.99868281   -4.5319109   -4.5319109   -3.0338871  0.045040997   -4.5319109    1.4980239      8192000 
  945000   0.99771267   -4.5299745   -4.5299745   -3.0334058  0.045755553   -4.5299745    1.4965686      8192000 
  946000   0.99801075   -4.5306276   -4.5306276   -3.0336118  0.045583046   -4.5306276    1.4970158      8192000 
  947000   0.99796266   -4.5302765   -4.5302765   -3.0333329  0.047347054   -4.5302765    1.4969436      8192000 
  948000   0.99896565   -4.5317767   -4.5317767   -3.0333286  0.044653873   -4.5317767    1.4984481      8192000 
  949000   0.99798059   -4.5306139   -4.5306139   -3.0336434  0.047253897   -4.5306139    1.4969705      8192000 
  950000    0.9984497   -4.5311278   -4.5311278   -3.0334537  0.046986469   -4.5311278    1.4976742      8192000 
  951000   0.99843419    -4.530773    -4.530773    -3.033122  0.046521949    -4.530773    1.4976509      8192000 
  952000   0.99862391   -4.5308785   -4.5308785    -3.032943  0.046063913   -4.5308785    1.4979355      8192000 
  953000   0.99900072   -4.5317621   -4.5317621   -3.0332614  0.043826808   -4.5317621    1.4985007      8192000 
  954000   0.99810399   -4.5305292   -4.5305292   -3.0333736  0.045887691   -4.5305292    1.4971556      8192000 
  955000   0.99779475   -4.5300211   -4.5300211   -3.0333294  0.045299746   -4.5300211    1.4966918      8192000 
  956000   0.99791438   -4.5297494   -4.5297494   -3.0328782  0.043951343   -4.5297494    1.4968712      8192000 
  957000   0.99753258    -4.529314    -4.529314   -3.0330155   0.04566271    -4.529314    1.4962985      8192000 
  958000   0.99785839   -4.5301241   -4.5301241   -3.0333369  0.043121583   -4.5301241    1.4967872      8192000 
  959000   0.99795397   -4.5302516   -4.5302516    -3.033321  0.043571971   -4.5302516    1.4969306      8192000 
  960000   0.99756532    -4.529509    -4.529509   -3.0331614  0.043772345    -4.529509    1.4963476      8192000 
  961000   0.99822493   -4.5304956   -4.5304956   -3.0331586  0.043351469   -4.5304956     1.497337      8192000 
  962000   0.99850653   -4.5306254   -4.5306254    -3.032866  0.043884417   -4.5306254    1.4977594      8192000 
  963000   0.99847105   -4.5307322   -4.5307322    -3.033026  0.045092768   -4.5307322    1.4977062      8192000 
  964000   0.99838497   -4.5307544   -4.5307544   -3.0331774  0.046568145   -4.5307544    1.4975771      8192000 
  965000   0.99847802   -4.5306844   -4.5306844   -3.0329677  0.045517736   -4.5306844    1.4977167      8192000 
  966000   0.99809569   -4.5306395   -4.5306395   -3.0334964  0.044751339   -4.5306395    1.4971432      8192000 
  967000   0.99835549   -4.5311679   -4.5311679    -3.033635  0.044549901   -4.5311679    1.4975329      8192000 
  968000   0.99805141   -4.5310021   -4.5310021   -3.0339253  0.045047108   -4.5310021    1.4970767      8192000 
  969000   0.99816795   -4.5310656   -4.5310656   -3.0338141  0.045637243   -4.5310656    1.4972516      8192000 
  970000   0.99848819   -4.5311524   -4.5311524   -3.0334204  0.047042086   -4.5311524    1.4977319      8192000 
  971000   0.99823337   -4.5311464   -4.5311464   -3.0337967  0.046515601   -4.5311464    1.4973497      8192000 
  972000   0.99840723   -4.5312142   -4.5312142   -3.0336037  0.047702311   -4.5312142    1.4976105      8192000 
  973000   0.99863145   -4.5324038   -4.5324038    -3.034457  0.047016071   -4.5324038    1.4979468      8192000 
  974000   0.99806701   -4.5312669   -4.5312669   -3.0341667  0.046063409   -4.5312669    1.4971001      8192000 
  975000   0.99827175   -4.5317103   -4.5317103   -3.0343031  0.047105644   -4.5317103    1.4974073      8192000 
  976000   0.99812205   -4.5314405   -4.5314405   -3.0342578  0.047572308   -4.5314405    1.4971827      8192000 
  977000   0.99837749   -4.5315513   -4.5315513   -3.0339855  0.046153815   -4.5315513    1.4975659      8192000 
  978000     0.998394   -4.5316453   -4.5316453   -3.0340547  0.046771513   -4.5316453    1.4975906      8192000 
  979000    0.9983098   -4.5318424   -4.5318424   -3.0343781   0.04630729   -4.5318424    1.4974643      8192000 
  980000   0.99854232   -4.5315134   -4.5315134   -3.0337002  0.046515047   -4.5315134    1.4978131      8192000 
  981000   0.99877566   -4.5317645   -4.5317645   -3.0336014  0.047902977   -4.5317645    1.4981631      8192000 
  982000   0.99843332    -4.531163    -4.531163   -3.0335133  0.048180983    -4.531163    1.4976496      8192000 
  983000   0.99868401   -4.5320737   -4.5320737   -3.0340481  0.046680357   -4.5320737    1.4980256      8192000 
  984000   0.99867405   -4.5316194   -4.5316194   -3.0336087  0.049090848   -4.5316194    1.4980107      8192000 
  985000   0.99858313   -4.5318862   -4.5318862   -3.0340119  0.046282194   -4.5318862    1.4978743      8192000 
  986000   0.99757766   -4.5306415   -4.5306415   -3.0342754  0.047579725   -4.5306415    1.4963661      8192000 
  987000   0.99763492   -4.5307177   -4.5307177   -3.0342657  0.045133634   -4.5307177     1.496452      8192000 
  988000   0.99803439   -4.5312188   -4.5312188   -3.0341676  0.044496563   -4.5312188    1.4970512      8192000 
  989000    0.9973412   -4.5306595   -4.5306595   -3.0346481  0.045935915   -4.5306595    1.4960114      8192000 
  990000   0.99759135   -4.5307694   -4.5307694   -3.0343827  0.045595821   -4.5307694    1.4963867      8192000 
  991000   0.99735615   -4.5300938   -4.5300938   -3.0340599  0.045007157   -4.5300938    1.4960339      8192000 
  992000   0.99766763   -4.5306967   -4.5306967   -3.0341956  0.044199294   -4.5306967    1.4965011      8192000 
  993000    0.9973499     -4.53033     -4.53033   -3.0343055  0.045602786     -4.53033    1.4960245      8192000 
  994000    0.9978001    -4.530433    -4.530433   -3.0337333  0.045425229    -4.530433    1.4966998      8192000 
  995000   0.99821476   -4.5315654   -4.5315654   -3.0342437  0.043891756   -4.5315654    1.4973218      8192000 
  996000   0.99822574   -4.5311329   -4.5311329   -3.0337946   0.04739699   -4.5311329    1.4973382      8192000 
  997000   0.99829661   -4.5313716   -4.5313716   -3.0339271  0.046562497   -4.5313716    1.4974446      8192000 
  998000   0.99845168   -4.5314927   -4.5314927   -3.0338156  0.047781379   -4.5314927    1.4976771      8192000 
  999000   0.99872791   -4.5321515   -4.5321515   -3.0340601  0.046354271   -4.5321515    1.4980915      8192000 
 1000000   0.99859546   -4.5317074   -4.5317074   -3.0338146  0.047104757   -4.5317074    1.4978928      8192000 
Loop time of 345870 on 64 procs for 1000000 steps with 4044800 atoms

Performance: 624.512 tau/day, 2.891 timesteps/s
99.8% CPU use with 64 MPI tasks x 1 OpenMP threads

MPI task timing breakdown:
Section |  min time  |  avg time  |  max time  |%varavg|  %CPU | %total
-----------------------------------------------------------------------
Pair    | 31744      | 1.298e+05  | 2.8049e+05 |9270.2 |  99.9 | 37.53
Bond    | 0.68925    | 0.86275    | 1.1352     |  10.0 | 100.0 |  0.00
Neigh   | 7014.5     | 24712      | 52945      |3875.4 | 100.0 |  7.14
Comm    | 8737       | 1.7619e+05 | 3.0506e+05 |10306.8 |  99.7 | 50.94
Output  | 30.755     | 160.56     | 416.6      |1311.9 |  99.9 |  0.05
Modify  | 557.65     | 1791.6     | 4022.5     |2068.9 |  99.6 |  0.52
Other   |            | 1.322e+04  |            |       |       |  3.82

Nlocal:    63200 ave 117734 max 11169 min
Histogram: 4 0 0 8 39 1 8 0 0 4
Nghost:    45284.6 ave 54389 max 8377 min
Histogram: 4 0 0 0 0 0 24 0 0 36
Neighs:    9.64738e+06 ave 1.67905e+07 max 97960 min
Histogram: 4 0 0 4 4 25 15 8 0 4

Total # of neighbors = 617432342
Ave neighs/atom = 152.648
Ave special neighs/atom = 0
Neighbor list builds = 73053
Dangerous builds = 2232
Total wall time: 96:04:35
