#LAMMPS data file for empty space
0 atoms
0 bodies
0 atom types
0 40 xlo xhi
0 40 ylo yhi
0 160 zlo zhi
