LAMMPS data file for polygons: cubes, moment of inertia I = m edge^2/ 6
1 atoms
1 bodies
2 atom types
0 40 xlo xhi
0 40 ylo yhi
0 40 zlo zhi

Atoms

1 2 1 8000 20 20 20

Bodies

1 3 79
8 12 6
533333 533333 533333 0 0 0
7.5 7.5 7.5
7.5 -7.5 7.5
-7.5 -7.5 7.5
-7.5 7.5 7.5
7.5 7.5 -7.5
7.5 -7.5 -7.5
-7.5 -7.5 -7.5
-7.5 7.5 -7.5
0 1
1 2
2 3
3 0
4 5
5 6
6 7
7 4
0 4
1 5
2 6
3 7
0 1 2 3
4 5 6 7
0 1 5 4
1 2 6 5
2 3 7 6
3 0 4 7
5
