LAMMPS (24 Dec 2020)
OMP_NUM_THREADS environment is not set. Defaulting to 1 thread. (src/comm.cpp:94)
  using 1 OpenMP thread(s) per MPI task
#Read the equilibrated lj fluid and add nanocubes

units           lj
atom_style      full
atom_modify     map array first cubes
dimension       3
boundary        p p f
pair_style      lj/cut/opt 2.5

variable        sigma           equal 1.0
variable        epsilon         equal 1.0
read_restart	restart.dat.10000000
Reading restart file ...
  restart file = 24 Dec 2020, LAMMPS = 24 Dec 2020
WARNING: Restart file used different # of processors: 288 vs. 768 (src/read_restart.cpp:697)
  restoring atom style full from restart
  orthogonal box = (0.0000000 0.0000000 0.0000000) to (120.00000 120.00000 240.00000)
  6 by 8 by 16 MPI processor grid
  restoring pair style lj/cut/opt from restart
  1553347 atoms
Finding 1-2 1-3 1-4 neighbors ...
  special bond factors lj:    0        0        0       
  special bond factors coul:  0        0        0       
     0 = max # of 1-2 neighbors
     0 = max # of 1-3 neighbors
     0 = max # of 1-4 neighbors
     1 = max # of special neighbors
  special bonds CPU = 9.311 seconds
  read_restart CPU = 10.596 seconds

group		solvent type 1
1553347 atoms in group solvent

read_data	data_dull_490.cubes group cubes add append
Reading data file ...
  orthogonal box = (0.0000000 0.0000000 0.0000000) to (120.00000 120.00000 240.00000)
  6 by 8 by 16 MPI processor grid
  reading atoms ...
  362110 atoms
  reading velocities ...
  362110 velocities
Finding 1-2 1-3 1-4 neighbors ...
  special bond factors lj:    0        0        0       
  special bond factors coul:  0        0        0       
     0 = max # of 1-2 neighbors
     0 = max # of 1-3 neighbors
     0 = max # of 1-4 neighbors
     1 = max # of special neighbors
  special bonds CPU = 0.361 seconds
  read_data CPU = 2.947 seconds

group 		hull  type 2
136220 atoms in group hull
group 		dummy type 3
225890 atoms in group dummy

neighbor      0.4 bin
neigh_modify  exclude molecule/intra cubes


pair_modify   shift yes

pair_coeff    1 1 1.0 1.0 #solvent
pair_coeff    2 2 1.0 1.0 1.12 #np
pair_coeff    3 3 0.0 0.0 0.0 #dummy
pair_coeff    2 3 0.0 0.0 0.0 #np dummy
pair_coeff    1 2 ${sol} 1.0  #np solvent
pair_coeff    1 2 .575 1.0  
pair_coeff    1 3 0.0 0.0 2.5 #dummy solvent

# delete solvent where the cubes are
delete_atoms  overlap 1.0 solvent cubes
System init for delete_atoms ...
Unused restart file peratom fix info:
  fix style: STORE, fix ID: bin1_COMPUTE_STORE
Neighbor list info ...
  update every 1 steps, delay 10 steps, check yes
  max neighbors/atom: 2000, page size: 100000
  master list distance cutoff = 2.9
  ghost atom cutoff = 2.9
  binsize = 1.45, bins = 83 83 166
  2 neighbor lists, perpetual/occasional/extra = 1 1 0
  (1) command delete_atoms, occasional
      attributes: full, newton on
      pair build: full/bin
      stencil: full/bin/3d
      bin: standard
  (2) pair lj/cut/opt, perpetual
      attributes: half, newton on
      pair build: half/bin/newton
      stencil: half/bin/3d/newton
      bin: standard
WARNING: Delete_atoms cutoff > minimum neighbor cutoff (src/delete_atoms.cpp:307)
WARNING: Ignoring 'compress yes' for molecular system (src/delete_atoms.cpp:125)
Deleted 269436 atoms, new total = 1646021

pair_coeff    1 1 1.0 1.0 #solvent
pair_coeff    2 2 1.0 1.0 1.12 #np
pair_coeff    3 3 0.0 0.0 0.0 #dummy
pair_coeff    2 3 0.0 0.0 0.0 #np dummy
pair_coeff    1 2 ${sol} 1.0  #np solvent
pair_coeff    1 2 .575 1.0  
pair_coeff    1 3 0.0 0.0 0.0 #dummy solvent


comm_modify   mode multi cutoff/multi 1 2.5 cutoff/multi 2 2.5 cutoff/multi 3 5.51

reset_timestep 	0

balance 	1.05 shift z 10 1.05
Balancing ...
Neighbor list info ...
  update every 1 steps, delay 10 steps, check yes
  max neighbors/atom: 2000, page size: 100000
  master list distance cutoff = 2.9
  ghost atom cutoff = 5.51
  binsize = 1.45, bins = 83 83 166
  1 neighbor lists, perpetual/occasional/extra = 1 0 0
  (1) pair lj/cut/opt, perpetual
      attributes: half, newton on
      pair build: half/bin/newton
      stencil: half/bin/3d/newton
      bin: standard
 rebalancing time: 0.008 seconds
  iteration count = 4
  initial/final maximal load/proc = 3145.0000 3055.0000
  initial/final imbalance factor  = 1.4673932 1.4254010
  x cuts: 0.0000000 0.16666667 0.33333333 0.50000000 0.66666667 0.83333333 1.0000000
  y cuts: 0.0000000 0.12500000 0.25000000 0.37500000 0.50000000 0.62500000 0.75000000 0.87500000 1.0000000
  z cuts: 0.0000000 0.050781250 0.097656250 0.14453125 0.19921875 0.24218750 0.28906250 0.33593750 0.38281250 0.44531250 0.49609375 0.53515625 0.57421875 0.63671875 0.67187500 0.73437500 1.0000000

####################### WALLS ###########################

variable       epsilonWall equal 2*${epsilon}
variable       epsilonWall equal 2*1
variable       repulsive   equal   0.7147*${sigma}
variable       repulsive   equal   0.7147*1
variable       full	   equal   3*${sigma}
variable       full	   equal   3*1
region         lowWall block EDGE EDGE EDGE EDGE EDGE 2

fix            topWall all wall/lj93 zhi EDGE 	       ${epsilonWall} ${sigma} ${repulsive} units box
fix            topWall all wall/lj93 zhi EDGE 	       2 ${sigma} ${repulsive} units box
fix            topWall all wall/lj93 zhi EDGE 	       2 1 ${repulsive} units box
fix            topWall all wall/lj93 zhi EDGE 	       2 1 0.7147 units box
fix            lowSol solvent wall/lj93 zlo EDGE                ${epsilonWall} ${sigma} ${full} units box
fix            lowSol solvent wall/lj93 zlo EDGE                2 ${sigma} ${full} units box
fix            lowSol solvent wall/lj93 zlo EDGE                2 1 ${full} units box
fix            lowSol solvent wall/lj93 zlo EDGE                2 1 3 units box
fix 	       lowCub cubes wall/lj93 zlo EDGE                ${epsilonWall} ${sigma} ${repulsive} units box
fix 	       lowCub cubes wall/lj93 zlo EDGE                2 ${sigma} ${repulsive} units box
fix 	       lowCub cubes wall/lj93 zlo EDGE                2 1 ${repulsive} units box
fix 	       lowCub cubes wall/lj93 zlo EDGE                2 1 0.7147 units box


###################### COMPUTES ##########################

compute        bin1 solvent chunk/atom bin/1d z lower 1.0 units box
compute        bin3 solvent chunk/atom bin/3d x lower 5.0 y lower 5.0 z lower 5.0 units box

compute 	pe solvent 	   pe/atom
compute 	pe2 all 	   pe/atom

######################  FIXES ############################


fix             peclet solvent ave/chunk 10 10 100000 bin1 density/number norm                  none ave one file density.profile

fix              temp solvent ave/chunk 10 10 100000 bin1 temp norm                  none ave one file temp.profile

fix 		 dens solvent ave/chunk 10 10 500000 bin3 density/number norm 		 none ave one file dens3.profile

fix 		pe solvent ave/chunk 1 1 500000 bin3 c_pe norm none ave one file pe3.profile
fix             1 cubes rigid/nve/small molecule
  create bodies CPU = 0.036 seconds
  490 rigid bodies with 362110 atoms
  5.5002725 = max distance from body owner to body atom

fix             2 solvent nve# temp ${temp} ${temp} 10


## Thermostat
region          regthermo block EDGE EDGE EDGE EDGE 0 15
group           thermo dynamic solvent region regthermo every 1000
dynamic group thermo defined
fix             3 thermo langevin ${temp} ${temp} 10 156453
fix             3 thermo langevin 1.0 ${temp} 10 156453
fix             3 thermo langevin 1.0 1.0 10 156453


#### Load balancing

fix             bal all balance 1000 1.05 shift z 10 1.05

############### Diagnostics and computes ###################


compute        	com cubes          rigid/local   1 mol x y z
compute        	quat cubes         rigid/local   1 mol quatw quati quatj quatk

compute 	cc2 cubes 	   chunk/atom 	 molecule
compute 	msd cubes 	   msd/chunk 	 cc2

fix 		msd all ave/time  1 1 10000 c_msd[*] file dump.msd ave one mode vector

dump            1 all custom 500000 dump.lammpstrj id mol type x y z vx vy vz c_pe2
dump		sol  solvent custom 500000 dump.soltrj id x y z vx vy vz c_pe
dump		cubetrj cubes custom 500000 cubes.lammpstrj id mol type x y z vx vy vz
#dump            com cubes local 100000 dump.*.xyz c_com[*]
#dump	        xyz hull xyz 100000 cubes.xyz
#dump            quat cubes      local 100000 dump.*.quat c_quat[*]
dump		order cubes 	local 500000 dump.*.order c_com[*] c_quat[*]
#dump		mol cubes molfile 10000 mol.xyz xyz


dump            2 all image 500000 image.*.png type type zoom 1.5 size 1280 720
dump_modify     2 pad 8
dump		image cubes image 500000 image_cubes.*.png type type zoom 1.5 size 1280 720
dump_modify	image pad 8
dump            3 all movie 10000 movie.avi type type zoom 1.5 size 1280 720
dump		4 cubes movie 10000 movie_cubes.avi type type size 1280 720


thermo          1000
thermo_style    custom step temp epair evdwl etotal press pe ke atoms

restart         1000000 restart.dat
timestep        0.005
timer           full
New timer settings: style=full  mode=nosync  timeout=off

run 		10000000
Per MPI rank memory allocation (min/avg/max) = 15.51 | 20.78 | 22.55 Mbytes
Step Temp E_pair E_vdwl TotEng Press PotEng KinEng Atoms 
       0    1.0081728   -2.4910511   -2.4910511   -1.3105761 -0.014570406   -2.4910511    1.1804751  1646021 
    1000    1.0049706   -2.4876029   -2.4876029   -1.3108773  0.073383999   -2.4876029    1.1767255  1646021 
    2000    1.0049767   -2.4882089   -2.4882089   -1.3114762   0.07384241   -2.4882089    1.1767327  1646021 
    3000      1.00461   -2.4877934   -2.4877934   -1.3114901  0.074700057   -2.4877934    1.1763034  1646021 
    4000    1.0044147   -2.4878084   -2.4878084   -1.3117336  0.073917998   -2.4878084    1.1760747  1646021 
    5000    1.0017632   -2.4847971   -2.4847971    -1.311827  0.075490266   -2.4847971      1.17297  1646021 
    6000     1.001792   -2.4851513   -2.4851513   -1.3121476  0.070734512   -2.4851513    1.1730038  1646021 
    7000    1.0011851   -2.4846917   -2.4846917   -1.3123986  0.069236036   -2.4846917    1.1722931  1646021 
    8000    1.0013207   -2.4845581   -2.4845581   -1.3121063  0.071861616   -2.4845581    1.1724518  1646021 
    9000    1.0011235   -2.4844753   -2.4844753   -1.3122543  0.074072602   -2.4844753     1.172221  1646021 
   10000    1.0000206   -2.4831024   -2.4831024   -1.3121728  0.068814409   -2.4831024    1.1709296  1646021 
   11000   0.99979449   -2.4830673   -2.4830673   -1.3124024  0.066910088   -2.4830673    1.1706648  1646021 
   12000   0.99975512   -2.4826746   -2.4826746   -1.3120559  0.069930787   -2.4826746    1.1706187  1646021 
   13000   0.99828643   -2.4816798   -2.4816798   -1.3127808   0.06638304   -2.4816798     1.168899  1646021 
   14000   0.99835063    -2.481206    -2.481206   -1.3122318  0.068278635    -2.481206    1.1689742  1646021 
   15000   0.99773394   -2.4807186   -2.4807186   -1.3124664  0.065064435   -2.4807186    1.1682521  1646021 
   16000   0.99707867   -2.4797114   -2.4797114   -1.3122265  0.063818028   -2.4797114    1.1674849  1646021 
   17000   0.99711033   -2.4797804   -2.4797804   -1.3122584  0.059934232   -2.4797804    1.1675219  1646021 
   18000   0.99672036   -2.4790653   -2.4790653       -1.312  0.064865775   -2.4790653    1.1670653  1646021 
   19000   0.99677835    -2.478763    -2.478763   -1.3116298  0.057625923    -2.478763    1.1671332  1646021 
   20000   0.99686376   -2.4783349   -2.4783349   -1.3111017  0.058645829   -2.4783349    1.1672332  1646021 
   21000    0.9975773   -2.4784142   -2.4784142   -1.3103455   0.06253189   -2.4784142    1.1680687  1646021 
   22000   0.99749728   -2.4781073   -2.4781073   -1.3101322     0.060191   -2.4781073     1.167975  1646021 
   23000   0.99753748   -2.4774562   -2.4774562   -1.3094341  0.064807977   -2.4774562    1.1680221  1646021 
   24000   0.99756369   -2.4772502   -2.4772502   -1.3091974  0.062482201   -2.4772502    1.1680528  1646021 
   25000   0.99686765   -2.4759322   -2.4759322   -1.3086944  0.061464391   -2.4759322    1.1672378  1646021 
   26000   0.99658829   -2.4750905   -2.4750905   -1.3081798  0.060844061   -2.4750905    1.1669107  1646021 
   27000   0.99635038   -2.4742914   -2.4742914   -1.3076593   0.06353986   -2.4742914    1.1666321  1646021 
   28000   0.99646285   -2.4740413   -2.4740413   -1.3072775  0.058283838   -2.4740413    1.1667638  1646021 
   29000   0.99664269    -2.474346    -2.474346   -1.3073716  0.059428084    -2.474346    1.1669744  1646021 
   30000   0.99652505   -2.4737416   -2.4737416    -1.306905  0.060082871   -2.4737416    1.1668366  1646021 
   31000   0.99584495   -2.4728292   -2.4728292   -1.3067889  0.059856348   -2.4728292    1.1660403  1646021 
   32000   0.99657675   -2.4734957   -2.4734957   -1.3065986  0.059020934   -2.4734957    1.1668972  1646021 
   33000   0.99714374   -2.4739709   -2.4739709   -1.3064098  0.061667453   -2.4739709    1.1675611  1646021 
   34000   0.99669248   -2.4731238   -2.4731238   -1.3060911  0.060790723   -2.4731238    1.1670327  1646021 
   35000   0.99586832   -2.4726587   -2.4726587    -1.306591  0.059208704   -2.4726587    1.1660677  1646021 
   36000   0.99587377   -2.4722101   -2.4722101   -1.3061361  0.059906342   -2.4722101    1.1660741  1646021 
   37000   0.99691658   -2.4729985   -2.4729985   -1.3057035  0.060577423   -2.4729985    1.1672951  1646021 
   38000   0.99742052   -2.4732178   -2.4732178   -1.3053326  0.058947017   -2.4732178    1.1678851  1646021 
   39000   0.99661028   -2.4720577   -2.4720577   -1.3051213  0.062548365   -2.4720577    1.1669364  1646021 
   40000   0.99713292   -2.4729388   -2.4729388   -1.3053904  0.061116372   -2.4729388    1.1675484  1646021 
   41000   0.99661874     -2.47237     -2.47237   -1.3054236  0.059401538     -2.47237    1.1669463  1646021 
   42000   0.99733565   -2.4732881   -2.4732881   -1.3055023  0.059149381   -2.4732881    1.1677858  1646021 
   43000   0.99707887   -2.4726055   -2.4726055   -1.3051204  0.060547901   -2.4726055    1.1674851  1646021 
   44000   0.99721639   -2.4729107   -2.4729107   -1.3052646  0.059796979   -2.4729107    1.1676461  1646021 
   45000   0.99709598   -2.4724274   -2.4724274   -1.3049222  0.062005117   -2.4724274    1.1675051  1646021 
   46000   0.99781213   -2.4735197   -2.4735197    -1.305176  0.062096667   -2.4735197    1.1683437  1646021 
   47000   0.99776767   -2.4735001   -2.4735001   -1.3052085  0.066135101   -2.4735001    1.1682916  1646021 
   48000   0.99851407   -2.4745282   -2.4745282   -1.3053626  0.063676544   -2.4745282    1.1691656  1646021 
   49000   0.99912354   -2.4750599   -2.4750599   -1.3051807  0.061588168   -2.4750599    1.1698792  1646021 
   50000   0.99841416   -2.4742992   -2.4742992   -1.3052506  0.064187802   -2.4742992    1.1690486  1646021 
   51000   0.99875615   -2.4750063   -2.4750063   -1.3055573  0.064303791   -2.4750063     1.169449  1646021 
   52000   0.99899445   -2.4749042   -2.4749042   -1.3051762  0.067070597   -2.4749042    1.1697281  1646021 
   53000   0.99945963   -2.4752804   -2.4752804   -1.3050077  0.062250032   -2.4752804    1.1702728  1646021 
   54000   0.99860245   -2.4747624   -2.4747624   -1.3054933  0.064600952   -2.4747624    1.1692691  1646021 
   55000   0.99811764   -2.4745231   -2.4745231   -1.3058217  0.062637869   -2.4745231    1.1687014  1646021 
   56000   0.99892728   -2.4751997   -2.4751997   -1.3055502   0.06721774   -2.4751997    1.1696494  1646021 
   57000    1.0001816   -2.4763264   -2.4763264   -1.3052083  0.065237409   -2.4763264    1.1711181  1646021 
   58000   0.99938742   -2.4759943   -2.4759943   -1.3058061  0.066312966   -2.4759943    1.1701882  1646021 
   59000    1.0001321   -2.4767643   -2.4767643   -1.3057041  0.063884813   -2.4767643    1.1710601  1646021 
   60000   0.99932594    -2.476139    -2.476139   -1.3060228  0.067094416    -2.476139    1.1701162  1646021 
   61000   0.99977901   -2.4768669   -2.4768669   -1.3062202  0.067975746   -2.4768669    1.1706467  1646021 
   62000    1.0005491   -2.4780477   -2.4780477   -1.3064993  0.062820447   -2.4780477    1.1715484  1646021 
   63000    1.0004182   -2.4779155   -2.4779155   -1.3065203  0.068052036   -2.4779155    1.1713952  1646021 
   64000    1.0000839   -2.4776723   -2.4776723   -1.3066686  0.070108132   -2.4776723    1.1710037  1646021 
   65000    1.0005485   -2.4785628   -2.4785628   -1.3070151  0.069069537   -2.4785628    1.1715477  1646021 
   66000    1.0001505    -2.478479    -2.478479   -1.3073973  0.067967041    -2.478479    1.1710817  1646021 
   67000   0.99970729   -2.4782062   -2.4782062   -1.3076435  0.069598208   -2.4782062    1.1705627  1646021 
   68000   0.99949702   -2.4779768   -2.4779768   -1.3076603   0.06564116   -2.4779768    1.1703165  1646021 
   69000   0.99944193   -2.4778001   -2.4778001   -1.3075481  0.068097426   -2.4778001     1.170252  1646021 
   70000    1.0008135   -2.4793673   -2.4793673   -1.3075093  0.065414903   -2.4793673     1.171858  1646021 
   71000   0.99972813   -2.4786345   -2.4786345   -1.3080473  0.064809873   -2.4786345    1.1705871  1646021 
   72000   0.99973456   -2.4790027   -2.4790027   -1.3084081  0.068608648   -2.4790027    1.1705947  1646021 
   73000   0.99959822   -2.4788274   -2.4788274   -1.3083924  0.064657327   -2.4788274     1.170435  1646021 
   74000    1.0001628   -2.4801154   -2.4801154   -1.3090194   0.06643879   -2.4801154    1.1710961  1646021 
   75000    1.0006138   -2.4804558   -2.4804558   -1.3088317  0.067266881   -2.4804558    1.1716241  1646021 
   76000    1.0002851   -2.4804242   -2.4804242   -1.3091849  0.066906853   -2.4804242    1.1712393  1646021 
   77000    1.0005641   -2.4799705   -2.4799705   -1.3084045  0.067060869   -2.4799705     1.171566  1646021 
   78000    1.0006111   -2.4799302   -2.4799302   -1.3083092  0.068946485   -2.4799302     1.171621  1646021 
   79000   0.99934543   -2.4783906   -2.4783906   -1.3082515  0.066621492   -2.4783906     1.170139  1646021 
   80000   0.99999311   -2.4797014   -2.4797014    -1.308804  0.065168293   -2.4797014    1.1708974  1646021 
   81000    1.0000815   -2.4794712   -2.4794712   -1.3084703  0.067697009   -2.4794712    1.1710009  1646021 
   82000    1.0000487   -2.4793265   -2.4793265    -1.308364  0.066359132   -2.4793265    1.1709625  1646021 
   83000    1.0000223   -2.4795806   -2.4795806   -1.3086491  0.065653858   -2.4795806    1.1709316  1646021 
   84000   0.99999857   -2.4788391   -2.4788391   -1.3079353  0.066856954   -2.4788391    1.1709038  1646021 
   85000   0.99990385    -2.478814    -2.478814   -1.3080211  0.068068304    -2.478814    1.1707929  1646021 
   86000   0.99989364    -2.478737    -2.478737   -1.3079561  0.066449469    -2.478737    1.1707809  1646021 
   87000    1.0004319   -2.4791776   -2.4791776   -1.3077665   0.06691614   -2.4791776    1.1714111  1646021 
   88000   0.99974483   -2.4786755   -2.4786755   -1.3080688   0.06434145   -2.4786755    1.1706067  1646021 
   89000   0.99920127   -2.4779484   -2.4779484   -1.3079782  0.065998554   -2.4779484    1.1699702  1646021 
   90000   0.99924444   -2.4781066   -2.4781066   -1.3080858  0.063890998   -2.4781066    1.1700208  1646021 
   91000    1.0000006   -2.4787809   -2.4787809   -1.3078747   0.06509875   -2.4787809    1.1709062  1646021 
   92000     0.999244   -2.4776624   -2.4776624   -1.3076422  0.066350672   -2.4776624    1.1700203  1646021 
   93000   0.99965991   -2.4780752   -2.4780752   -1.3075679  0.066356135   -2.4780752    1.1705073  1646021 
   94000   0.99999229   -2.4786785   -2.4786785   -1.3077821  0.064252845   -2.4786785    1.1708964  1646021 
   95000   0.99960632    -2.478257    -2.478257   -1.3078125  0.065442988    -2.478257    1.1704445  1646021 
   96000   0.99884536   -2.4772213   -2.4772213   -1.3076678  0.064905645   -2.4772213    1.1695535  1646021 
   97000   0.99924686   -2.4772299   -2.4772299   -1.3072063  0.064215907   -2.4772299    1.1700236  1646021 
   98000   0.99911491   -2.4766397   -2.4766397   -1.3067706  0.063904134   -2.4766397    1.1698691  1646021 
   99000   0.99871787   -2.4759764   -2.4759764   -1.3065722  0.066090074   -2.4759764    1.1694042  1646021 
  100000    0.9980243   -2.4753321   -2.4753321     -1.30674  0.066727472   -2.4753321    1.1685921  1646021 
  101000   0.99872917   -2.4761684   -2.4761684    -1.306751  0.067346023   -2.4761684    1.1694175  1646021 
  102000   0.99894057   -2.4760105   -2.4760105   -1.3063455  0.066083918   -2.4760105     1.169665  1646021 
  103000   0.99944152   -2.4761534   -2.4761534   -1.3059019  0.063736328   -2.4761534    1.1702515  1646021 
  104000   0.99851954   -2.4752008   -2.4752008   -1.3060288  0.064966333   -2.4752008     1.169172  1646021 
  105000   0.99837851    -2.475148    -2.475148   -1.3061411  0.066000561    -2.475148    1.1690069  1646021 
  106000   0.99796367   -2.4748291   -2.4748291    -1.306308  0.064219539   -2.4748291    1.1685211  1646021 
  107000    0.9978529   -2.4751656   -2.4751656   -1.3067742  0.063971354   -2.4751656    1.1683914  1646021 
  108000   0.99860882   -2.4757647   -2.4757647   -1.3064882  0.064885639   -2.4757647    1.1692765  1646021 
  109000   0.99858402   -2.4754842   -2.4754842   -1.3062367  0.063903723   -2.4754842    1.1692475  1646021 
  110000    0.9976931   -2.4746207   -2.4746207   -1.3064164  0.062381363   -2.4746207    1.1682043  1646021 
  111000   0.99799801   -2.4747847   -2.4747847   -1.3062234  0.063595003   -2.4747847    1.1685613  1646021 
  112000   0.99805106   -2.4747506   -2.4747506   -1.3061272  0.063954686   -2.4747506    1.1686235  1646021 
  113000   0.99812036   -2.4746819   -2.4746819   -1.3059773  0.064521341   -2.4746819    1.1687046  1646021 
  114000   0.99773401   -2.4741643   -2.4741643   -1.3059121  0.060313136   -2.4741643    1.1682522  1646021 
  115000   0.99799986   -2.4742566   -2.4742566   -1.3056931  0.059297764   -2.4742566    1.1685635  1646021 
  116000   0.99719755    -2.473447    -2.473447    -1.305823   0.06425111    -2.473447    1.1676241  1646021 
  117000   0.99839508   -2.4751589   -2.4751589   -1.3061327  0.063016251   -2.4751589    1.1690263  1646021 
  118000   0.99860235    -2.475361    -2.475361    -1.306092  0.063738006    -2.475361     1.169269  1646021 
  119000   0.99818202   -2.4749344   -2.4749344   -1.3061576  0.061770552   -2.4749344    1.1687768  1646021 
  120000   0.99801837   -2.4741851   -2.4741851   -1.3055999  0.061411125   -2.4741851    1.1685852  1646021 
  121000   0.99818133   -2.4744526   -2.4744526   -1.3056766   0.06329277   -2.4744526     1.168776  1646021 
  122000   0.99824041   -2.4743359   -2.4743359   -1.3054908  0.061179663   -2.4743359    1.1688452  1646021 
  123000   0.99794391    -2.473863    -2.473863    -1.305365  0.061055652    -2.473863     1.168498  1646021 
  124000   0.99772499   -2.4729552   -2.4729552   -1.3047136  0.065617199   -2.4729552    1.1682416  1646021 
  125000   0.99927594   -2.4747329   -2.4747329   -1.3046753  0.063618576   -2.4747329    1.1700577  1646021 
  126000   0.99773307   -2.4730495   -2.4730495   -1.3047984  0.062605536   -2.4730495    1.1682511  1646021 
  127000   0.99811513   -2.4737245   -2.4737245   -1.3050261  0.064069902   -2.4737245    1.1686985  1646021 
  128000   0.99822142    -2.474008    -2.474008   -1.3051851  0.062930015    -2.474008    1.1688229  1646021 
  129000   0.99940831   -2.4752188   -2.4752188   -1.3050061  0.064822906   -2.4752188    1.1702127  1646021 
  130000    1.0001543    -2.476338    -2.476338   -1.3052518  0.064693733    -2.476338    1.1710862  1646021 
  131000   0.99871209   -2.4745803   -2.4745803   -1.3051828  0.062819249   -2.4745803    1.1693975  1646021 
  132000   0.99972988   -2.4754796   -2.4754796   -1.3048904  0.064680337   -2.4754796    1.1705892  1646021 
  133000   0.99906736   -2.4744911   -2.4744911   -1.3046777  0.067620927   -2.4744911    1.1698134  1646021 
  134000   0.99967022   -2.4758574   -2.4758574   -1.3053381  0.065954107   -2.4758574    1.1705193  1646021 
  135000   0.99959176   -2.4753109   -2.4753109   -1.3048834   0.06301036   -2.4753109    1.1704275  1646021 
  136000   0.99889642     -2.47524     -2.47524   -1.3056267  0.065438709     -2.47524    1.1696133  1646021 
  137000   0.99936711    -2.475717    -2.475717   -1.3055526   0.06014964    -2.475717    1.1701644  1646021 
  138000   0.99869029   -2.4745257   -2.4745257   -1.3051538  0.064795237   -2.4745257    1.1693719  1646021 
  139000   0.99908412   -2.4754272   -2.4754272   -1.3055941  0.065326598   -2.4754272    1.1698331  1646021 
  140000   0.99873951    -2.475092    -2.475092   -1.3056624    0.0637272    -2.475092    1.1694296  1646021 
  141000   0.99876276   -2.4752077   -2.4752077   -1.3057509  0.066577926   -2.4752077    1.1694568  1646021 
  142000   0.99920064   -2.4759083   -2.4759083   -1.3059388  0.064855471   -2.4759083    1.1699695  1646021 
  143000   0.99873137   -2.4755216   -2.4755216   -1.3061016  0.069725232   -2.4755216      1.16942  1646021 
  144000   0.99894838   -2.4759479   -2.4759479   -1.3062738  0.065927972   -2.4759479    1.1696741  1646021 
  145000   0.99933859   -2.4760624   -2.4760624   -1.3059314  0.069044521   -2.4760624     1.170131  1646021 
  146000    0.9994029   -2.4762282   -2.4762282   -1.3060219  0.062966215   -2.4762282    1.1702063  1646021 
  147000   0.99971722   -2.4765344   -2.4765344   -1.3059601   0.06917273   -2.4765344    1.1705744  1646021 
  148000   0.99984871   -2.4760776   -2.4760776   -1.3053493  0.066769574   -2.4760776    1.1707283  1646021 
  149000   0.99934371   -2.4761742   -2.4761742   -1.3060371  0.065009722   -2.4761742     1.170137  1646021 
  150000   0.99918293   -2.4760489   -2.4760489   -1.3061001  0.067106734   -2.4760489    1.1699488  1646021 
  151000   0.99993715    -2.476796    -2.476796   -1.3059641  0.063450521    -2.476796    1.1708319  1646021 
  152000   0.99980703   -2.4764477   -2.4764477   -1.3057681  0.065409973   -2.4764477    1.1706795  1646021 
  153000    0.9995935   -2.4767284   -2.4767284   -1.3062989  0.065188638   -2.4767284    1.1704295  1646021 
  154000     1.000476   -2.4774871   -2.4774871   -1.3060243  0.066721546   -2.4774871    1.1714628  1646021 
  155000   0.99989493   -2.4768561   -2.4768561   -1.3060737  0.067139923   -2.4768561    1.1707824  1646021 
  156000     1.000436   -2.4775088   -2.4775088   -1.3060928  0.066116286   -2.4775088    1.1714159  1646021 
  157000   0.99980144   -2.4764748   -2.4764748   -1.3058019  0.067690379   -2.4764748     1.170673  1646021 
  158000   0.99986185   -2.4761891   -2.4761891   -1.3054454  0.067426073   -2.4761891    1.1707437  1646021 
  159000    1.0004994   -2.4776772   -2.4776772   -1.3061871  0.067510112   -2.4776772    1.1714902  1646021 
  160000   0.99983369   -2.4771641   -2.4771641   -1.3064534  0.065908792   -2.4771641    1.1707107  1646021 
  161000   0.99930042   -2.4768062   -2.4768062   -1.3067199  0.063057096   -2.4768062    1.1700863  1646021 
  162000   0.99967951   -2.4772305   -2.4772305   -1.3067003  0.067745828   -2.4772305    1.1705302  1646021 
  163000   0.99896199   -2.4769083   -2.4769083   -1.3072182  0.064278563   -2.4769083    1.1696901  1646021 
  164000   0.99963279   -2.4766798   -2.4766798   -1.3062042  0.064790191   -2.4766798    1.1704755  1646021 
  165000    1.0000023   -2.4775091   -2.4775091    -1.306601  0.063608454   -2.4775091    1.1709081  1646021 
  166000   0.99829254   -2.4757946   -2.4757946   -1.3068884  0.064626321   -2.4757946    1.1689062  1646021 
  167000   0.99812355   -2.4756405   -2.4756405   -1.3069321  0.064290454   -2.4756405    1.1687083  1646021 
  168000   0.99835793   -2.4761138   -2.4761138    -1.307131  0.062963469   -2.4761138    1.1689828  1646021 
  169000   0.99802913   -2.4756769   -2.4756769   -1.3070791  0.061670573   -2.4756769    1.1685978  1646021 
  170000   0.99863668   -2.4763657   -2.4763657   -1.3070566  0.066685322   -2.4763657    1.1693092  1646021 
  171000   0.99774009   -2.4754852   -2.4754852   -1.3072259  0.062727156   -2.4754852    1.1682593  1646021 
  172000   0.99752388   -2.4748772   -2.4748772   -1.3068711  0.062860237   -2.4748772    1.1680062  1646021 
  173000   0.99779622   -2.4757063   -2.4757063   -1.3073812  0.063908948   -2.4757063    1.1683251  1646021 
  174000    0.9982139    -2.476147    -2.476147   -1.3073329  0.060607484    -2.476147    1.1688141  1646021 
  175000   0.99858817   -2.4763213   -2.4763213   -1.3070689  0.061770075   -2.4763213    1.1692524  1646021 
  176000   0.99771798   -2.4749903   -2.4749903   -1.3067568  0.061010029   -2.4749903    1.1682334  1646021 
  177000   0.99822873    -2.475819    -2.475819   -1.3069875   0.06513484    -2.475819    1.1688315  1646021 
  178000   0.99840262   -2.4755619   -2.4755619   -1.3065268  0.063223111   -2.4755619    1.1690351  1646021 
  179000   0.99884666   -2.4756518   -2.4756518   -1.3060967  0.064172319   -2.4756518     1.169555  1646021 
  180000   0.99935008   -2.4762798   -2.4762798   -1.3061353  0.065074905   -2.4762798    1.1701445  1646021 
  181000   0.99925195   -2.4758287   -2.4758287   -1.3057991  0.063750559   -2.4758287    1.1700296  1646021 
  182000   0.99831475   -2.4745834   -2.4745834   -1.3056512  0.063506593   -2.4745834    1.1689322  1646021 
  183000   0.99898971   -2.4756398   -2.4756398   -1.3059173  0.064911254   -2.4756398    1.1697225  1646021 
  184000   0.99873657   -2.4744389   -2.4744389   -1.3050128  0.064693257   -2.4744389    1.1694261  1646021 
  185000   0.99849812   -2.4740171   -2.4740171   -1.3048702  0.064264722   -2.4740171    1.1691469  1646021 
  186000   0.99952071   -2.4755532   -2.4755532    -1.305209  0.064706017   -2.4755532    1.1703443  1646021 
  187000    0.9988316   -2.4749555   -2.4749555   -1.3054181  0.063342649   -2.4749555    1.1695374  1646021 
  188000   0.99901284   -2.4749007   -2.4749007   -1.3051511  0.066177751   -2.4749007    1.1697496  1646021 
  189000   0.99967091   -2.4755926   -2.4755926   -1.3050724   0.06366753   -2.4755926    1.1705201  1646021 
  190000   0.99824927   -2.4735714   -2.4735714   -1.3047159  0.068140328   -2.4735714    1.1688555  1646021 
  191000   0.99929032    -2.474606    -2.474606   -1.3045315  0.061360753    -2.474606    1.1700745  1646021 
  192000   0.99980464   -2.4744357   -2.4744357    -1.303759  0.063017536   -2.4744357    1.1706767  1646021 
  193000   0.99966732   -2.4740847   -2.4740847   -1.3035688  0.066462264   -2.4740847    1.1705159  1646021 
  194000   0.99991657   -2.4750071   -2.4750071   -1.3041994  0.064761902   -2.4750071    1.1708078  1646021 
  195000    1.0000546   -2.4746713   -2.4746713   -1.3037018  0.068494751   -2.4746713    1.1709695  1646021 
  196000   0.99937283   -2.4742605   -2.4742605   -1.3040893  0.060082017   -2.4742605    1.1701711  1646021 
  197000   0.99897636   -2.4743879   -2.4743879    -1.304681  0.063317143   -2.4743879    1.1697069  1646021 
  198000   0.99819653   -2.4732912   -2.4732912   -1.3044975  0.062434601   -2.4732912    1.1687938  1646021 
  199000   0.99889239   -2.4741009   -2.4741009   -1.3044923   0.06202774   -2.4741009    1.1696086  1646021 
  200000   0.99937107   -2.4745289   -2.4745289   -1.3043598   0.06082082   -2.4745289    1.1701691  1646021 
  201000   0.99940257   -2.4746101   -2.4746101   -1.3044041  0.064221951   -2.4746101    1.1702059  1646021 
  202000   0.99881751   -2.4739828   -2.4739828   -1.3044619  0.065042875   -2.4739828    1.1695209  1646021 
  203000   0.99827794   -2.4736758   -2.4736758   -1.3047867  0.062901736   -2.4736758    1.1688891  1646021 
  204000   0.99929697   -2.4750924   -2.4750924   -1.3050101  0.063597599   -2.4750924    1.1700823  1646021 
  205000   0.99800775    -2.473521    -2.473521   -1.3049483  0.066315638    -2.473521    1.1685727  1646021 
  206000   0.99739632   -2.4728795   -2.4728795   -1.3050227  0.064691379   -2.4728795    1.1678568  1646021 
  207000   0.99763147   -2.4729609   -2.4729609   -1.3048287   0.06670539   -2.4729609    1.1681322  1646021 
  208000   0.99847245   -2.4740594   -2.4740594   -1.3049426  0.064359371   -2.4740594    1.1691169  1646021 
  209000   0.99884114   -2.4747733   -2.4747733   -1.3052247    0.0621007   -2.4747733    1.1695486  1646021 
  210000   0.99808607    -2.473828    -2.473828   -1.3051636  0.062989618    -2.473828    1.1686644  1646021 
  211000   0.99804751   -2.4738935   -2.4738935   -1.3052742  0.062033185   -2.4738935    1.1686193  1646021 
  212000   0.99699831   -2.4725617   -2.4725617   -1.3051709  0.064211057   -2.4725617    1.1673908  1646021 
  213000   0.99832643   -2.4743618   -2.4743618   -1.3054159  0.061788416   -2.4743618    1.1689459  1646021 
  214000   0.99836236   -2.4740895   -2.4740895   -1.3051016   0.06427165   -2.4740895     1.168988  1646021 
  215000   0.99805464   -2.4735119   -2.4735119   -1.3048842   0.06465699   -2.4735119    1.1686276  1646021 
  216000   0.99850785    -2.473715    -2.473715   -1.3045567  0.063341197    -2.473715    1.1691583  1646021 
  217000   0.99928647   -2.4747366   -2.4747366   -1.3046666   0.06399689   -2.4747366      1.17007  1646021 
  218000   0.99819183   -2.4737283   -2.4737283     -1.30494  0.064173101   -2.4737283    1.1687883  1646021 
  219000   0.99864035   -2.4742285   -2.4742285   -1.3049151  0.062318238   -2.4742285    1.1693134  1646021 
  220000   0.99934289   -2.4746229   -2.4746229   -1.3044869  0.062913055   -2.4746229    1.1701361  1646021 
  221000   0.99814297   -2.4734189   -2.4734189   -1.3046878  0.068940564   -2.4734189    1.1687311  1646021 
  222000   0.99953313   -2.4750592   -2.4750592   -1.3047004  0.063464154   -2.4750592    1.1703588  1646021 
  223000   0.99920387    -2.474089    -2.474089   -1.3041157  0.064880285    -2.474089    1.1699733  1646021 
  224000   0.99890884   -2.4735582   -2.4735582   -1.3039304  0.064269123   -2.4735582    1.1696278  1646021 
  225000   0.99796902   -2.4731599   -2.4731599   -1.3046325  0.067805385   -2.4731599    1.1685274  1646021 
  226000   0.99971949   -2.4745994   -2.4745994   -1.3040224  0.064635491   -2.4745994     1.170577  1646021 
  227000   0.99921606   -2.4740871   -2.4740871   -1.3040996  0.066478287   -2.4740871    1.1699876  1646021 
  228000   0.99911766   -2.4745404   -2.4745404    -1.304668  0.061664921   -2.4745404    1.1698723  1646021 
  229000   0.99922173   -2.4747537   -2.4747537   -1.3047595  0.062082258   -2.4747537    1.1699942  1646021 
  230000   0.99890437   -2.4738106   -2.4738106    -1.304188    0.0607631   -2.4738106    1.1696226  1646021 
  231000   0.99853617   -2.4740497   -2.4740497   -1.3048582  0.065841687   -2.4740497    1.1691915  1646021 
  232000   0.99872734   -2.4738205   -2.4738205   -1.3044052  0.065243732   -2.4738205    1.1694153  1646021 
  233000   0.99943938   -2.4746903   -2.4746903   -1.3044412  0.065311419   -2.4746903     1.170249  1646021 
  234000    1.0000316   -2.4749423   -2.4749423   -1.3039998   0.06483007   -2.4749423    1.1709424  1646021 
  235000   0.99894371   -2.4743242   -2.4743242   -1.3046556  0.068145114   -2.4743242    1.1696687  1646021 
  236000   0.99892757   -2.4743688   -2.4743688   -1.3047191  0.065125957   -2.4743688    1.1696498  1646021 
  237000    0.9992091    -2.475091    -2.475091   -1.3051116  0.063771555    -2.475091    1.1699794  1646021 
  238000   0.99947401   -2.4753659   -2.4753659   -1.3050763  0.063529406   -2.4753659    1.1702896  1646021 
  239000   0.99926812   -2.4748825   -2.4748825    -1.304834  0.068925376   -2.4748825    1.1700485  1646021 
  240000   0.99846716   -2.4739711   -2.4739711   -1.3048605  0.065347795   -2.4739711    1.1691107  1646021 
  241000   0.99946023   -2.4749408   -2.4749408   -1.3046674  0.066439041   -2.4749408    1.1702735  1646021 
  242000   0.99979404   -2.4750526   -2.4750526   -1.3043883  0.063425619   -2.4750526    1.1706643  1646021 
  243000   0.99962214   -2.4749518   -2.4749518   -1.3044887  0.064732746   -2.4749518     1.170463  1646021 
  244000   0.99962217   -2.4745581   -2.4745581    -1.304095  0.064175449   -2.4745581    1.1704631  1646021 
  245000   0.99893009   -2.4739818   -2.4739818   -1.3043291  0.064393359   -2.4739818    1.1696527  1646021 
  246000   0.99928884   -2.4746842   -2.4746842   -1.3046114   0.06659563   -2.4746842    1.1700728  1646021 
  247000   0.99985032   -2.4755815   -2.4755815   -1.3048513  0.063361433   -2.4755815    1.1707302  1646021 
  248000   0.99984609   -2.4760321   -2.4760321   -1.3053068  0.067269962   -2.4760321    1.1707253  1646021 
  249000   0.99981106    -2.475787    -2.475787   -1.3051028  0.063932971    -2.475787    1.1706842  1646021 
  250000   0.99893541   -2.4745427   -2.4745427   -1.3048838  0.065637624   -2.4745427    1.1696589  1646021 
  251000   0.99947397   -2.4755927   -2.4755927   -1.3053031  0.068073438   -2.4755927    1.1702895  1646021 
  252000   0.99845147   -2.4743823   -2.4743823     -1.30529  0.064827046   -2.4743823    1.1690923  1646021 
  253000   0.99773212   -2.4736299   -2.4736299   -1.3053798   0.06459445   -2.4736299      1.16825  1646021 
  254000   0.99877911    -2.474796    -2.474796     -1.30532    0.0671057    -2.474796    1.1694759  1646021 
  255000   0.99841239   -2.4744024   -2.4744024   -1.3053559  0.063532551   -2.4744024    1.1690465  1646021 
  256000   0.99822201   -2.4740708   -2.4740708   -1.3052472  0.064258862   -2.4740708    1.1688236  1646021 
  257000   0.99927178   -2.4754197   -2.4754197   -1.3053669  0.063701036   -2.4754197    1.1700528  1646021 
  258000    0.9985829   -2.4755709   -2.4755709   -1.3063248  0.063681308   -2.4755709    1.1692462  1646021 
  259000    0.9982259   -2.4750038   -2.4750038   -1.3061756  0.062721066   -2.4750038    1.1688282  1646021 
  260000   0.99825542    -2.474514    -2.474514   -1.3056513  0.063902739    -2.474514    1.1688627  1646021 
  261000   0.99948299   -2.4754699   -2.4754699   -1.3051698  0.065384125   -2.4754699    1.1703001  1646021 
  262000   0.99915196   -2.4751109   -2.4751109   -1.3051984  0.065768671   -2.4751109    1.1699125  1646021 
  263000   0.99985021   -2.4762227   -2.4762227   -1.3054926   0.06590421   -2.4762227    1.1707301  1646021 
  264000   0.99910096    -2.474959    -2.474959   -1.3051062  0.066154571    -2.474959    1.1698528  1646021 
  265000    1.0000484    -2.476052    -2.476052   -1.3050898  0.066111198    -2.476052    1.1709622  1646021 
  266000   0.99917474    -2.475298    -2.475298   -1.3053588  0.063133193    -2.475298    1.1699392  1646021 
  267000   0.99915563   -2.4751904   -2.4751904   -1.3052736  0.067742536   -2.4751904    1.1699168  1646021 
  268000   0.99973375   -2.4759427   -2.4759427   -1.3053489  0.064810837   -2.4759427    1.1705937  1646021 
  269000    1.0010341   -2.4768637   -2.4768637   -1.3047473  0.063645654   -2.4768637    1.1721163  1646021 
  270000   0.99978033   -2.4748845   -2.4748845   -1.3042362  0.066859989   -2.4748845    1.1706483  1646021 
  271000    1.0002667   -2.4751445   -2.4751445   -1.3039268  0.065039546   -2.4751445    1.1712177  1646021 
  272000    1.0008729   -2.4761262   -2.4761262   -1.3041986  0.066776473   -2.4761262    1.1719276  1646021 
  273000    1.0006501   -2.4755238   -2.4755238   -1.3038571  0.066685284   -2.4755238    1.1716667  1646021 
  274000    1.0001562   -2.4749385   -2.4749385   -1.3038502  0.067661817   -2.4749385    1.1710884  1646021 
  275000   0.99961903   -2.4745787   -2.4745787   -1.3041193  0.069013961   -2.4745787    1.1704594  1646021 
  276000   0.99976373   -2.4747465   -2.4747465   -1.3041176  0.063196362   -2.4747465    1.1706288  1646021 
  277000   0.99966911   -2.4748764   -2.4748764   -1.3043583  0.065241965   -2.4748764     1.170518  1646021 
  278000    1.0011376   -2.4761161   -2.4761161   -1.3038786  0.063338337   -2.4761161    1.1722375  1646021 
  279000   0.99931924    -2.474544    -2.474544   -1.3044356    0.0652604    -2.474544    1.1701084  1646021 
  280000    1.0001879   -2.4758866   -2.4758866   -1.3047611  0.067733864   -2.4758866    1.1711255  1646021 
  281000   0.99935219   -2.4750924   -2.4750924   -1.3049454  0.065509533   -2.4750924    1.1701469  1646021 
  282000   0.99874093   -2.4745591   -2.4745591   -1.3051279  0.065022986   -2.4745591    1.1694312  1646021 
  283000   0.99893681   -2.4746176   -2.4746176   -1.3049571  0.063698016   -2.4746176    1.1696606  1646021 
  284000    0.9986683    -2.474686    -2.474686   -1.3053399  0.064562905    -2.474686    1.1693462  1646021 
  285000   0.99948822    -2.475757    -2.475757   -1.3054508  0.064978594    -2.475757    1.1703062  1646021 
  286000    1.0001258   -2.4763411   -2.4763411   -1.3052884  0.064020739   -2.4763411    1.1710527  1646021 
  287000    1.0002619   -2.4762322   -2.4762322   -1.3050201  0.063142538   -2.4762322    1.1712121  1646021 
  288000   0.99916341   -2.4744679   -2.4744679    -1.304542  0.064708608   -2.4744679    1.1699259  1646021 
  289000   0.99921671   -2.4749206   -2.4749206   -1.3049323  0.062147265   -2.4749206    1.1699883  1646021 
  290000   0.99810245   -2.4734808   -2.4734808   -1.3047972  0.066674345   -2.4734808    1.1686836  1646021 
  291000   0.99977003   -2.4751645   -2.4751645   -1.3045283  0.063392154   -2.4751645    1.1706362  1646021 
  292000   0.99851638   -2.4735992   -2.4735992   -1.3044309  0.065133649   -2.4735992    1.1691683  1646021 
  293000   0.99847568    -2.473418    -2.473418   -1.3042974  0.063372357    -2.473418    1.1691206  1646021 
  294000   0.99786827   -2.4726583   -2.4726583   -1.3042489  0.063161133   -2.4726583    1.1684094  1646021 
  295000   0.99830292   -2.4727219   -2.4727219   -1.3038036   0.06378849   -2.4727219    1.1689184  1646021 
  296000   0.99838976   -2.4728417   -2.4728417   -1.3038217  0.066062649   -2.4728417      1.16902  1646021 
  297000   0.99955535   -2.4743247   -2.4743247   -1.3039398  0.061764691   -2.4743247    1.1703848  1646021 
  298000   0.99924401   -2.4739283   -2.4739283    -1.303908  0.064110345   -2.4739283    1.1700203  1646021 
  299000   0.99905899   -2.4734951   -2.4734951   -1.3036914  0.065002628   -2.4734951    1.1698036  1646021 
  300000   0.99984839   -2.4743661   -2.4743661   -1.3036382  0.065412925   -2.4743661     1.170728  1646021 
  301000    0.9993494   -2.4736938   -2.4736938   -1.3035501  0.067520635   -2.4736938    1.1701437  1646021 
  302000    0.9997459   -2.4738388   -2.4738388   -1.3032309  0.066298338   -2.4738388    1.1706079  1646021 
  303000   0.99815768    -2.472365    -2.472365   -1.3036167  0.069187787    -2.472365    1.1687483  1646021 
  304000   0.99890038   -2.4730536   -2.4730536   -1.3034357  0.065495342   -2.4730536    1.1696179  1646021 
  305000   0.99928252   -2.4736623   -2.4736623   -1.3035969  0.065868269   -2.4736623    1.1700654  1646021 
  306000   0.99847085   -2.4727218   -2.4727218   -1.3036068  0.067240174   -2.4727218     1.169115  1646021 
  307000   0.99941211   -2.4735168   -2.4735168   -1.3032997  0.066188175   -2.4735168    1.1702171  1646021 
  308000   0.99981204   -2.4739002   -2.4739002   -1.3032149  0.067241581   -2.4739002    1.1706854  1646021 
  309000   0.99941489     -2.47314     -2.47314   -1.3029196  0.065165061     -2.47314    1.1702204  1646021 
  310000   0.99948062   -2.4732045   -2.4732045   -1.3029072  0.062709529   -2.4732045    1.1702973  1646021 
  311000   0.99939381   -2.4731439   -2.4731439   -1.3029482  0.066179605   -2.4731439    1.1701957  1646021 
  312000     1.000005   -2.4738827   -2.4738827   -1.3029714  0.064454915   -2.4738827    1.1709113  1646021 
  313000   0.99924673   -2.4730106   -2.4730106   -1.3029871  0.066492197   -2.4730106    1.1700235  1646021 
  314000    0.9994416   -2.4733294   -2.4733294   -1.3030778  0.063562837   -2.4733294    1.1702516  1646021 
  315000    0.9990993   -2.4730687   -2.4730687   -1.3032178   0.06303162   -2.4730687    1.1698508  1646021 
  316000    0.9986761   -2.4726038   -2.4726038   -1.3032485  0.063574741   -2.4726038    1.1693553  1646021 
  317000   0.99898158   -2.4727029   -2.4727029   -1.3029899  0.064667827   -2.4727029     1.169713  1646021 
  318000   0.99872895   -2.4722619   -2.4722619   -1.3028447  0.068103313   -2.4722619    1.1694172  1646021 
  319000   0.99923372   -2.4728038   -2.4728038   -1.3027956  0.065468794   -2.4728038    1.1700082  1646021 
  320000   0.99903654   -2.4729884   -2.4729884   -1.3032111  0.064114465   -2.4729884    1.1697774  1646021 
  321000    0.9988989   -2.4729074   -2.4729074   -1.3032912  0.062703153   -2.4729074    1.1696162  1646021 
  322000   0.99874834   -2.4728848   -2.4728848   -1.3034449  0.064782783   -2.4728848    1.1694399  1646021 
  323000   0.99979108   -2.4738922   -2.4738922   -1.3032313  0.067805064   -2.4738922    1.1706609  1646021 
  324000   0.99917112   -2.4733494   -2.4733494   -1.3034144  0.066496945   -2.4733494    1.1699349  1646021 
  325000    0.9996745   -2.4739456   -2.4739456   -1.3034213  0.064173448   -2.4739456    1.1705243  1646021 
  326000   0.99877626   -2.4726874   -2.4726874   -1.3032148  0.061785956   -2.4726874    1.1694726  1646021 
  327000   0.99981676   -2.4735137   -2.4735137   -1.3028228  0.063866587   -2.4735137    1.1706909  1646021 
  328000   0.99890959   -2.4722652   -2.4722652   -1.3026365  0.067355239   -2.4722652    1.1696287  1646021 
  329000   0.99879035   -2.4722725   -2.4722725   -1.3027834  0.067018013   -2.4722725    1.1694891  1646021 
  330000   0.99877679   -2.4723155   -2.4723155   -1.3028423  0.062646609   -2.4723155    1.1694732  1646021 
  331000    1.0001477   -2.4738602   -2.4738602   -1.3027819  0.065544351   -2.4738602    1.1710784  1646021 
  332000   0.99843746   -2.4720219   -2.4720219    -1.302946  0.063645637   -2.4720219    1.1690759  1646021 
  333000   0.99857282   -2.4730917   -2.4730917   -1.3038573  0.064617702   -2.4730917    1.1692344  1646021 
  334000   0.99902076   -2.4734833   -2.4734833   -1.3037245  0.067444283   -2.4734833    1.1697589  1646021 
  335000   0.99922236   -2.4729237   -2.4729237   -1.3029288  0.063201965   -2.4729237    1.1699949  1646021 
  336000    0.9991194   -2.4726212   -2.4726212   -1.3027468  0.062904102   -2.4726212    1.1698744  1646021 
  337000   0.99992211    -2.473793    -2.473793   -1.3029787  0.063450043    -2.473793    1.1708143  1646021 
  338000   0.99957522   -2.4730924   -2.4730924   -1.3026843  0.065356717   -2.4730924    1.1704081  1646021 
  339000   0.99949988   -2.4728111   -2.4728111   -1.3024912  0.063184861   -2.4728111    1.1703199  1646021 
  340000   0.99916328   -2.4722889   -2.4722889   -1.3023632  0.062677057   -2.4722889    1.1699258  1646021 
  341000    0.9997775   -2.4731089   -2.4731089    -1.302464  0.065896721   -2.4731089    1.1706449  1646021 
  342000   0.99946581   -2.4727215   -2.4727215   -1.3024415  0.065126372   -2.4727215      1.17028  1646021 
  343000    1.0001262   -2.4731311   -2.4731311   -1.3020779  0.062971783   -2.4731311    1.1710533  1646021 
  344000   0.99923259   -2.4723189   -2.4723189    -1.302312  0.065635847   -2.4723189    1.1700069  1646021 
  345000   0.99862164   -2.4720985   -2.4720985   -1.3028069  0.063391134   -2.4720985    1.1692915  1646021 
  346000    0.9983419   -2.4717962   -2.4717962   -1.3028322   0.06546923   -2.4717962     1.168964  1646021 
  347000   0.99904067   -2.4730185   -2.4730185   -1.3032363  0.064392027   -2.4730185    1.1697822  1646021 
  348000   0.99980553   -2.4734364   -2.4734364   -1.3027586   0.06547439   -2.4734364    1.1706778  1646021 
  349000   0.99931742   -2.4725408   -2.4725408   -1.3024346  0.066532514   -2.4725408    1.1701062  1646021 
  350000   0.99925564   -2.4720039   -2.4720039   -1.3019701  0.065231866   -2.4720039    1.1700339  1646021 
  351000   0.99985406   -2.4729802   -2.4729802   -1.3022456  0.064549369   -2.4729802    1.1707346  1646021 
  352000   0.99933756   -2.4723668   -2.4723668    -1.302237  0.062495023   -2.4723668    1.1701298  1646021 
  353000   0.99839859   -2.4716617   -2.4716617   -1.3026313  0.063467096   -2.4716617    1.1690304  1646021 
  354000   0.99866692   -2.4716086   -2.4716086   -1.3022641  0.064343514   -2.4716086    1.1693446  1646021 
  355000   0.99879899   -2.4718601   -2.4718601   -1.3023609  0.063805232   -2.4718601    1.1694992  1646021 
  356000   0.99913012   -2.4721344   -2.4721344   -1.3022474  0.061544406   -2.4721344    1.1698869  1646021 
  357000   0.99890924    -2.472092    -2.472092   -1.3024637  0.064441648    -2.472092    1.1696283  1646021 
  358000   0.99906151   -2.4727013   -2.4727013   -1.3028947  0.067752342   -2.4727013    1.1698066  1646021 
  359000   0.99883933   -2.4722568   -2.4722568   -1.3027104  0.064835817   -2.4722568    1.1695464  1646021 
  360000   0.99857865   -2.4721213   -2.4721213   -1.3028801  0.065551884   -2.4721213    1.1692412  1646021 
  361000   0.99882153   -2.4722196   -2.4722196    -1.302694  0.062533153   -2.4722196    1.1695256  1646021 
  362000   0.99837213   -2.4721041   -2.4721041   -1.3031047  0.063101344   -2.4721041    1.1689994  1646021 
  363000   0.99895862   -2.4722354   -2.4722354   -1.3025493  0.063804287   -2.4722354    1.1696861  1646021 
  364000   0.99889973   -2.4721936   -2.4721936   -1.3025764  0.062359162   -2.4721936    1.1696172  1646021 
  365000   0.99830954   -2.4713956   -2.4713956   -1.3024695  0.065803609   -2.4713956    1.1689261  1646021 
  366000   0.99820558   -2.4715635   -2.4715635   -1.3027592  0.062584322   -2.4715635    1.1688044  1646021 
  367000   0.99886774   -2.4720316   -2.4720316   -1.3024519  0.063758793   -2.4720316    1.1695797  1646021 
  368000   0.99819623   -2.4715265   -2.4715265   -1.3027331  0.062996515   -2.4715265    1.1687934  1646021 
  369000   0.99925938    -2.472283    -2.472283   -1.3022447   0.06399957    -2.472283    1.1700383  1646021 
  370000   0.99946964   -2.4724495   -2.4724495    -1.302165   0.06215219   -2.4724495    1.1702845  1646021 
  371000    1.0009876   -2.4743123   -2.4743123   -1.3022504  0.063515869   -2.4743123    1.1720619  1646021 
  372000   0.99871845   -2.4723196   -2.4723196   -1.3029147  0.062655063   -2.4723196    1.1694049  1646021 
  373000   0.99945946   -2.4730126   -2.4730126     -1.30274  0.065206505   -2.4730126    1.1702726  1646021 
  374000     1.000617    -2.473743    -2.473743   -1.3021151  0.062989922    -2.473743    1.1716279  1646021 
  375000   0.99916559    -2.472331    -2.472331   -1.3024025  0.065169565    -2.472331    1.1699285  1646021 
  376000    1.0000514   -2.4733162   -2.4733162   -1.3023505  0.063806568   -2.4733162    1.1709657  1646021 
  377000   0.99984882   -2.4727015   -2.4727015   -1.3019731  0.065681208   -2.4727015    1.1707285  1646021 
  378000   0.99990433   -2.4727833   -2.4727833   -1.3019898   0.06532692   -2.4727833    1.1707935  1646021 
  379000   0.99943407   -2.4723464   -2.4723464   -1.3021035  0.065835892   -2.4723464    1.1702428  1646021 
  380000   0.99990528   -2.4730696   -2.4730696   -1.3022751  0.064161313   -2.4730696    1.1707946  1646021 
  381000   0.99983398    -2.472198    -2.472198   -1.3014869  0.061720258    -2.472198    1.1707111  1646021 
  382000    1.0004735   -2.4729838   -2.4729838   -1.3015239  0.065606797   -2.4729838      1.17146  1646021 
  383000   0.99880497   -2.4716333   -2.4716333   -1.3021271  0.063581724   -2.4716333    1.1695062  1646021 
  384000   0.99897854   -2.4723677   -2.4723677   -1.3026583  0.061468254   -2.4723677    1.1697094  1646021 
  385000   0.99898561   -2.4723619   -2.4723619   -1.3026442  0.061157532   -2.4723619    1.1697177  1646021 
  386000   0.99821814    -2.471699    -2.471699   -1.3028799  0.064521091    -2.471699    1.1688191  1646021 
  387000   0.99896166    -2.472203    -2.472203   -1.3025133  0.066825022    -2.472203    1.1696897  1646021 
  388000   0.99877895   -2.4720327   -2.4720327   -1.3025569  0.066944038   -2.4720327    1.1694757  1646021 
  389000   0.99908858   -2.4724917   -2.4724917   -1.3026534  0.064891858   -2.4724917    1.1698383  1646021 
  390000   0.99980953   -2.4731609   -2.4731609   -1.3024784  0.066977995   -2.4731609    1.1706825  1646021 
  391000   0.99968531   -2.4727042   -2.4727042   -1.3021672  0.065520179   -2.4727042     1.170537  1646021 
  392000    0.9996385   -2.4729273   -2.4729273   -1.3024451  0.062086716   -2.4729273    1.1704822  1646021 
  393000   0.99904681   -2.4718079   -2.4718079   -1.3020185  0.063283028   -2.4718079    1.1697894  1646021 
  394000   0.99985904   -2.4726203   -2.4726203   -1.3018799  0.065486637   -2.4726203    1.1707404  1646021 
  395000    1.0002529   -2.4734995   -2.4734995   -1.3022978  0.063338447   -2.4734995    1.1712016  1646021 
  396000   0.99932586   -2.4724565   -2.4724565   -1.3023403   0.06645575   -2.4724565    1.1701161  1646021 
  397000   0.99890828   -2.4722876   -2.4722876   -1.3026604  0.064278284   -2.4722876    1.1696272  1646021 
  398000   0.99941851   -2.4725226   -2.4725226    -1.302298  0.065275873   -2.4725226    1.1702246  1646021 
  399000   0.99945881   -2.4726275   -2.4726275   -1.3023557  0.065329739   -2.4726275    1.1702718  1646021 
  400000   0.99868646   -2.4717246   -2.4717246   -1.3023571  0.065627368   -2.4717246    1.1693674  1646021 
  401000   0.99915287   -2.4725581   -2.4725581   -1.3026445  0.062364162   -2.4725581    1.1699136  1646021 
  402000   0.99901016   -2.4720094   -2.4720094   -1.3022629  0.067028225   -2.4720094    1.1697465  1646021 
  403000   0.99885992   -2.4717201   -2.4717201   -1.3021496  0.063179211   -2.4717201    1.1695705  1646021 
  404000   0.99874866   -2.4713092   -2.4713092    -1.301869  0.066099253   -2.4713092    1.1694403  1646021 
  405000    0.9991882   -2.4720619   -2.4720619    -1.302107  0.063122272   -2.4720619    1.1699549  1646021 
  406000   0.99916537   -2.4716103   -2.4716103   -1.3016821  0.065921104   -2.4716103    1.1699282  1646021 
  407000   0.99973104   -2.4724492   -2.4724492   -1.3018587  0.065213636   -2.4724492    1.1705906  1646021 
  408000   0.99920642   -2.4716379   -2.4716379   -1.3016616  0.062922179   -2.4716379    1.1699763  1646021 
  409000   0.99980654    -2.472345    -2.472345    -1.301666  0.062052433    -2.472345     1.170679  1646021 
  410000    1.0000205   -2.4725049   -2.4725049   -1.3015754  0.063645914   -2.4725049    1.1709294  1646021 
  411000   0.99944878   -2.4715763   -2.4715763   -1.3013163  0.066253938   -2.4715763      1.17026  1646021 
  412000    0.9985402   -2.4712433   -2.4712433   -1.3020471  0.063207693   -2.4712433    1.1691962  1646021 
  413000   0.99958263   -2.4724513   -2.4724513   -1.3020345  0.064304363   -2.4724513    1.1704168  1646021 
  414000   0.99944393   -2.4723685   -2.4723685   -1.3021141  0.067602703   -2.4723685    1.1702544  1646021 
  415000   0.99990441   -2.4725825   -2.4725825   -1.3017889  0.064084876   -2.4725825    1.1707936  1646021 
  416000    0.9993242    -2.471806    -2.471806   -1.3016919  0.064394877    -2.471806    1.1701142  1646021 
  417000    1.0006158   -2.4734592   -2.4734592   -1.3018327  0.060299216   -2.4734592    1.1716265  1646021 
  418000    0.9991497    -2.472121    -2.472121   -1.3022111  0.064413376    -2.472121    1.1699098  1646021 
  419000   0.99985923   -2.4724894   -2.4724894   -1.3017488  0.065389184   -2.4724894    1.1707406  1646021 
  420000   0.99874438   -2.4713126   -2.4713126   -1.3018773  0.063454538   -2.4713126    1.1694353  1646021 
  421000   0.99891762   -2.4713398   -2.4713398   -1.3017017  0.063961844   -2.4713398    1.1696381  1646021 
  422000   0.99838427     -2.47092     -2.47092   -1.3019064  0.062711055     -2.47092    1.1690136  1646021 
  423000   0.99961777   -2.4713787   -2.4713787   -1.3009207  0.059806388   -2.4713787    1.1704579  1646021 
  424000   0.99887225    -2.470566    -2.470566    -1.300981  0.066065943    -2.470566     1.169585  1646021 
  425000   0.99879397   -2.4708131   -2.4708131   -1.3013197  0.066633239   -2.4708131    1.1694933  1646021 
  426000   0.99928451   -2.4711316   -2.4711316   -1.3010639  0.066230443   -2.4711316    1.1700677  1646021 
  427000   0.99880643   -2.4704406   -2.4704406   -1.3009327  0.066291685   -2.4704406    1.1695079  1646021 
  428000   0.99969705   -2.4714444   -2.4714444   -1.3008937  0.063820576   -2.4714444    1.1705507  1646021 
  429000       0.9993   -2.4713377   -2.4713377   -1.3012518  0.067846531   -2.4713377    1.1700858  1646021 
  430000    1.0001213   -2.4727544   -2.4727544    -1.301707   0.06320009   -2.4727544    1.1710475  1646021 
  431000   0.99997033   -2.4722365   -2.4722365   -1.3013657  0.062652795   -2.4722365    1.1708707  1646021 
  432000    1.0001075   -2.4720754   -2.4720754    -1.301044  0.065686932   -2.4720754    1.1710314  1646021 
  433000   0.99981436     -2.47217     -2.47217   -1.3014818   0.06457423     -2.47217    1.1706881  1646021 
  434000   0.99984037   -2.4721687   -2.4721687   -1.3014501  0.062539122   -2.4721687    1.1707186  1646021 
  435000   0.99980684   -2.4719054   -2.4719054   -1.3012261  0.065908203   -2.4719054    1.1706793  1646021 
  436000    1.0002721   -2.4721471   -2.4721471    -1.300923  0.060188884   -2.4721471    1.1712241  1646021 
  437000   0.99952868   -2.4709569   -2.4709569   -1.3006033  0.067703515   -2.4709569    1.1703536  1646021 
  438000   0.99932575   -2.4712168   -2.4712168   -1.3011008  0.065213438   -2.4712168     1.170116  1646021 
  439000     1.000401   -2.4722706   -2.4722706   -1.3008956  0.065579082   -2.4722706     1.171375  1646021 
  440000   0.99980771   -2.4718721   -2.4718721   -1.3011918  0.065789926   -2.4718721    1.1706803  1646021 
  441000     1.000703   -2.4730615   -2.4730615   -1.3013329  0.066965395   -2.4730615    1.1717286  1646021 
  442000   0.99968791   -2.4718596   -2.4718596   -1.3013196  0.067315802   -2.4718596    1.1705401  1646021 
  443000    1.0004246   -2.4726754   -2.4726754   -1.3012728  0.064876656   -2.4726754    1.1714026  1646021 
  444000    1.0000794    -2.472587    -2.472587   -1.3015885  0.061759445    -2.472587    1.1709985  1646021 
  445000   0.99916494   -2.4716674   -2.4716674   -1.3017397  0.066897186   -2.4716674    1.1699277  1646021 
  446000   0.99924526   -2.4718443   -2.4718443   -1.3018226  0.064664195   -2.4718443    1.1700218  1646021 
  447000   0.99956777   -2.4724228   -2.4724228   -1.3020234  0.068296683   -2.4724228    1.1703994  1646021 
  448000   0.99918423   -2.4716545   -2.4716545   -1.3017042  0.065276575   -2.4716545    1.1699503  1646021 
  449000   0.99938409   -2.4724546   -2.4724546   -1.3022703  0.063159405   -2.4724546    1.1701843  1646021 
  450000   0.99948701   -2.4729556   -2.4729556   -1.3026508  0.063621717   -2.4729556    1.1703048  1646021 
  451000   0.99971156   -2.4725842   -2.4725842   -1.3020165  0.064883872   -2.4725842    1.1705677  1646021 
  452000   0.99928216   -2.4718586   -2.4718586   -1.3017936  0.065082875   -2.4718586     1.170065  1646021 
  453000    0.9991962    -2.471741    -2.471741   -1.3017767  0.062415131    -2.471741    1.1699643  1646021 
  454000   0.99974123   -2.4718689   -2.4718689   -1.3012664  0.066405792   -2.4718689    1.1706025  1646021 
  455000   0.99929843   -2.4720214   -2.4720214   -1.3019374  0.064982196   -2.4720214     1.170084  1646021 
  456000   0.99973917   -2.4723255   -2.4723255   -1.3017254  0.063432461   -2.4723255    1.1706001  1646021 
  457000    1.0001053   -2.4728447   -2.4728447   -1.3018159  0.068210867   -2.4728447    1.1710288  1646021 
  458000    1.0005242   -2.4730032   -2.4730032   -1.3014839  0.067843711   -2.4730032    1.1715193  1646021 
  459000    1.0001194   -2.4725701   -2.4725701   -1.3015248  0.065162284   -2.4725701    1.1710453  1646021 
  460000   0.99990336   -2.4723667   -2.4723667   -1.3015744  0.064159623   -2.4723667    1.1707923  1646021 
  461000    1.0001383   -2.4724441   -2.4724441   -1.3013767  0.065608448   -2.4724441    1.1710674  1646021 
  462000   0.99964216   -2.4721679   -2.4721679   -1.3016815  0.065296625   -2.4721679    1.1704865  1646021 
  463000   0.99949142   -2.4714825   -2.4714825   -1.3011726  0.066709166   -2.4714825      1.17031  1646021 
  464000    1.0004748   -2.4723084   -2.4723084    -1.300847  0.066021216   -2.4723084    1.1714614  1646021 
  465000    1.0009556   -2.4729082   -2.4729082   -1.3008837   0.06269655   -2.4729082    1.1720244  1646021 
  466000    1.0005022   -2.4722437   -2.4722437   -1.3007502  0.065672102   -2.4722437    1.1714935  1646021 
  467000     1.000177   -2.4712633   -2.4712633   -1.3001507  0.065874868   -2.4712633    1.1711127  1646021 
  468000    1.0007995   -2.4722151   -2.4722151   -1.3003735  0.067632257   -2.4722151    1.1718416  1646021 
  469000    1.0007061   -2.4723253   -2.4723253   -1.3005931  0.065004624   -2.4723253    1.1717322  1646021 
  470000   0.99937838   -2.4707488   -2.4707488   -1.3005712   0.06730755   -2.4707488    1.1701776  1646021 
  471000   0.99938815   -2.4710175   -2.4710175   -1.3008284    0.0638376   -2.4710175    1.1701891  1646021 
  472000   0.99961975   -2.4714744   -2.4714744   -1.3010142  0.064284136   -2.4714744    1.1704602  1646021 
  473000   0.99960659   -2.4714118   -2.4714118    -1.300967  0.065158923   -2.4714118    1.1704448  1646021 
  474000   0.99973494   -2.4716422   -2.4716422   -1.3010471  0.064942862   -2.4716422    1.1705951  1646021 
  475000     1.000425   -2.4727867   -2.4727867   -1.3013836  0.065202313   -2.4727867    1.1714031  1646021 
  476000   0.99954091   -2.4713745   -2.4713745   -1.3010066  0.064690865   -2.4713745    1.1703679  1646021 
  477000    1.0011445    -2.472976    -2.472976   -1.3007304  0.063441489    -2.472976    1.1722456  1646021 
  478000    1.0002915   -2.4714914   -2.4714914   -1.3002445  0.065664297   -2.4714914    1.1712468  1646021 
  479000    1.0008783   -2.4718077   -2.4718077   -1.2998737  0.062033751   -2.4718077    1.1719339  1646021 
  480000    1.0001882   -2.4713511   -2.4713511   -1.3002253  0.067515815   -2.4713511    1.1711258  1646021 
  481000    0.9990894   -2.4699865   -2.4699865   -1.3001472   0.06504951   -2.4699865    1.1698393  1646021 
  482000   0.99948517   -2.4701961   -2.4701961   -1.2998934  0.061656364   -2.4701961    1.1703027  1646021 
  483000   0.99944977   -2.4706349   -2.4706349   -1.3003737  0.065023759   -2.4706349    1.1702612  1646021 
  484000   0.99906863   -2.4703858   -2.4703858   -1.3005709  0.064297882   -2.4703858    1.1698149  1646021 
  485000   0.99917235   -2.4706282   -2.4706282   -1.3006918  0.063362418   -2.4706282    1.1699364  1646021 
  486000    1.0000654   -2.4715029   -2.4715029   -1.3005208  0.062351215   -2.4715029    1.1709821  1646021 
  487000    0.9997902   -2.4706242   -2.4706242   -1.2999644  0.065564013   -2.4706242    1.1706598  1646021 
  488000   0.99914539   -2.4701698   -2.4701698    -1.300265  0.066402427   -2.4701698    1.1699048  1646021 
  489000   0.99959616   -2.4704056   -2.4704056    -1.299973  0.062348572   -2.4704056    1.1704326  1646021 
  490000   0.99942217     -2.47032     -2.47032   -1.3000911  0.064276996     -2.47032    1.1702289  1646021 
  491000   0.99961788   -2.4699824   -2.4699824   -1.2995244  0.065992408   -2.4699824     1.170458  1646021 
  492000    1.0002405   -2.4713473   -2.4713473   -1.3001602  0.063818756   -2.4713473    1.1711871  1646021 
  493000   0.99975773   -2.4708712   -2.4708712   -1.3002494  0.060042494   -2.4708712    1.1706218  1646021 
  494000   0.99910531   -2.4697125   -2.4697125   -1.2998546  0.063338897   -2.4697125    1.1698579  1646021 
  495000   0.99928692   -2.4695503   -2.4695503   -1.2994797  0.065231658   -2.4695503    1.1700705  1646021 
  496000   0.99969935   -2.4699571   -2.4699571   -1.2994036  0.065116453   -2.4699571    1.1705534  1646021 
  497000   0.99877395   -2.4689723   -2.4689723   -1.2995025  0.064680243   -2.4689723    1.1694699  1646021 
  498000   0.99918323   -2.4695598   -2.4695598   -1.2996107  0.065378633   -2.4695598    1.1699491  1646021 
  499000   0.99892269   -2.4692727   -2.4692727   -1.2996286  0.063799699   -2.4692727     1.169644  1646021 
  500000   0.99994192    -2.470152    -2.470152   -1.2993145   0.06329044    -2.470152    1.1708375  1646021 
  501000   0.99983312   -2.4697541   -2.4697541    -1.299044  0.065712059   -2.4697541    1.1707101  1646021 
  502000    1.0001186   -2.4699604   -2.4699604    -1.298916  0.065317141   -2.4699604    1.1710444  1646021 
  503000    1.0003983   -2.4703723   -2.4703723   -1.2990005  0.066274806   -2.4703723    1.1713718  1646021 
  504000    1.0001902   -2.4702575   -2.4702575   -1.2991294  0.063233796   -2.4702575    1.1711282  1646021 
  505000    1.0004478   -2.4702055   -2.4702055   -1.2987758  0.063747639   -2.4702055    1.1714298  1646021 
  506000    1.0004647   -2.4706666   -2.4706666   -1.2992171  0.067537267   -2.4706666    1.1714495  1646021 
  507000    1.0001729   -2.4702509   -2.4702509    -1.299143  0.064692726   -2.4702509    1.1711079  1646021 
  508000     1.000366   -2.4703283   -2.4703283   -1.2989943  0.066464928   -2.4703283    1.1713341  1646021 
  509000    1.0009037   -2.4712684   -2.4712684   -1.2993047  0.065972178   -2.4712684    1.1719637  1646021 
  510000     1.000666   -2.4711704   -2.4711704   -1.2994852  0.066729577   -2.4711704    1.1716852  1646021 
  511000    1.0010265   -2.4711778   -2.4711778   -1.2990703  0.066353616   -2.4711778    1.1721074  1646021 
  512000   0.99988539   -2.4699262   -2.4699262   -1.2991549  0.066188777   -2.4699262    1.1707713  1646021 
  513000   0.99919624   -2.4695855   -2.4695855   -1.2996212  0.064246136   -2.4695855    1.1699643  1646021 
  514000    1.0001202   -2.4705353   -2.4705353   -1.2994891  0.064663395   -2.4705353    1.1710462  1646021 
  515000    1.0003691   -2.4703488   -2.4703488   -1.2990111  0.067528693   -2.4703488    1.1713376  1646021 
  516000   0.99975435   -2.4702111   -2.4702111   -1.2995933  0.062775088   -2.4702111    1.1706178  1646021 
  517000   0.99958449    -2.470625    -2.470625   -1.3002061  0.063250404    -2.470625    1.1704189  1646021 
  518000    0.9984789   -2.4702259   -2.4702259   -1.3011014  0.064578854   -2.4702259    1.1691244  1646021 
  519000   0.99951503   -2.4708303   -2.4708303   -1.3004927  0.065060919   -2.4708303    1.1703376  1646021 
  520000   0.99930546   -2.4702664   -2.4702664   -1.3001742  0.060614071   -2.4702664    1.1700922  1646021 
  521000   0.99916176   -2.4698889   -2.4698889   -1.2999649  0.063441118   -2.4698889     1.169924  1646021 
  522000   0.99889153   -2.4698224   -2.4698224   -1.3002148  0.063322152   -2.4698224    1.1696076  1646021 
  523000   0.99861817   -2.4692885   -2.4692885    -1.300001  0.062687807   -2.4692885    1.1692875  1646021 
  524000   0.99930944   -2.4700284   -2.4700284   -1.2999315   0.06035127   -2.4700284    1.1700969  1646021 
  525000   0.99937419   -2.4703012   -2.4703012   -1.3001285  0.062779516   -2.4703012    1.1701727  1646021 
  526000    1.0000021    -2.471165    -2.471165   -1.3002571  0.063582361    -2.471165    1.1709079  1646021 
  527000   0.99997047   -2.4707537   -2.4707537   -1.2998828  0.064548803   -2.4707537    1.1708709  1646021 
  528000    1.0006442   -2.4709755   -2.4709755   -1.2993157  0.065519529   -2.4709755    1.1716598  1646021 
  529000    1.0004926   -2.4707528   -2.4707528   -1.2992706  0.065158064   -2.4707528    1.1714822  1646021 
  530000    1.0001707   -2.4703307   -2.4703307   -1.2992254  0.065288937   -2.4703307    1.1711053  1646021 
  531000    1.0001937   -2.4697974   -2.4697974   -1.2986652  0.065060734   -2.4697974    1.1711323  1646021 
  532000    1.0004283   -2.4699018   -2.4699018   -1.2984948  0.066883318   -2.4699018     1.171407  1646021 
  533000    0.9999715   -2.4697591   -2.4697591    -1.298887  0.064223408   -2.4697591    1.1708721  1646021 
  534000    1.0008762   -2.4709336   -2.4709336   -1.2990021  0.063262408   -2.4709336    1.1719315  1646021 
  535000    1.0000449   -2.4698763   -2.4698763   -1.2989182  0.062446202   -2.4698763     1.170958  1646021 
  536000   0.99947473    -2.469149    -2.469149   -1.2988586  0.065061121    -2.469149    1.1702904  1646021 
  537000   0.99997442   -2.4699439   -2.4699439   -1.2990683  0.067250354   -2.4699439    1.1708755  1646021 
  538000    1.0007508   -2.4706005   -2.4706005    -1.298816   0.06548759   -2.4706005    1.1717846  1646021 
  539000    1.0007386   -2.4706469   -2.4706469   -1.2988766   0.06332835   -2.4706469    1.1717703  1646021 
  540000    1.0003555   -2.4703545   -2.4703545   -1.2990327   0.06503339   -2.4703545    1.1713218  1646021 
  541000    1.0004246    -2.470534    -2.470534   -1.2991313  0.064395405    -2.470534    1.1714026  1646021 
  542000   0.99991397   -2.4699636   -2.4699636   -1.2991589  0.064247227   -2.4699636    1.1708047  1646021 
  543000   0.99981103   -2.4697334   -2.4697334   -1.2990491  0.068119173   -2.4697334    1.1706842  1646021 
  544000    1.0010364   -2.4716114   -2.4716114   -1.2994924  0.064995612   -2.4716114    1.1721191  1646021 
  545000   0.99997836   -2.4700629   -2.4700629   -1.2991827  0.065185084   -2.4700629    1.1708801  1646021 
  546000    1.0002732   -2.4705877   -2.4705877   -1.2993623  0.066182196   -2.4705877    1.1712254  1646021 
  547000    1.0001883   -2.4702243   -2.4702243   -1.2990984  0.062395229   -2.4702243    1.1711259  1646021 
  548000    1.0001741   -2.4705304   -2.4705304   -1.2994211  0.064802324   -2.4705304    1.1711093  1646021 
  549000   0.99987533   -2.4701599   -2.4701599   -1.2994004  0.065145842   -2.4701599    1.1707595  1646021 
  550000    1.0002459   -2.4708244   -2.4708244   -1.2996309  0.065986722   -2.4708244    1.1711934  1646021 
  551000   0.99870086   -2.4694169   -2.4694169   -1.3000326  0.066368367   -2.4694169    1.1693843  1646021 
  552000   0.99994839   -2.4701434   -2.4701434   -1.2992984  0.065903685   -2.4701434     1.170845  1646021 
  553000   0.99940442    -2.469802    -2.469802   -1.2995939  0.063064739    -2.469802    1.1702081  1646021 
  554000   0.99881273    -2.469338    -2.469338   -1.2998227  0.062871186    -2.469338    1.1695153  1646021 
  555000   0.99969109   -2.4703368   -2.4703368   -1.2997931   0.06398991   -2.4703368    1.1705438  1646021 
  556000   0.99904236   -2.4699477   -2.4699477   -1.3001636  0.063393178   -2.4699477    1.1697842  1646021 
  557000   0.99899522   -2.4700579   -2.4700579   -1.3003289  0.064343079   -2.4700579     1.169729  1646021 
  558000   0.99896553   -2.4693062   -2.4693062    -1.299612  0.064583272   -2.4693062    1.1696942  1646021 
  559000   0.99897777   -2.4701571   -2.4701571   -1.3004486  0.062355981   -2.4701571    1.1697085  1646021 
  560000   0.99926871   -2.4708891   -2.4708891   -1.3008399  0.061958206   -2.4708891    1.1700492  1646021 
  561000   0.99851814   -2.4698862   -2.4698862   -1.3007159  0.065232098   -2.4698862    1.1691704  1646021 
  562000   0.99878522   -2.4703186   -2.4703186   -1.3008355  0.063483585   -2.4703186    1.1694831  1646021 
  563000   0.99986674   -2.4706263   -2.4706263   -1.2998768  0.065638343   -2.4706263    1.1707494  1646021 
  564000   0.99939051   -2.4699401   -2.4699401   -1.2997482  0.064706551   -2.4699401    1.1701918  1646021 
  565000   0.99937341   -2.4700632   -2.4700632   -1.2998914  0.067459113   -2.4700632    1.1701718  1646021 
  566000    0.9996095    -2.470811    -2.470811   -1.3003628  0.063643116    -2.470811    1.1704482  1646021 
  567000    1.0001158   -2.4713016   -2.4713016   -1.3002604  0.067475563   -2.4713016    1.1710411  1646021 
  568000    1.0000954   -2.4714361   -2.4714361    -1.300419   0.06789279   -2.4714361    1.1710171  1646021 
  569000   0.99996143   -2.4710909   -2.4710909   -1.3002306  0.063921079   -2.4710909    1.1708603  1646021 
  570000   0.99992827    -2.470971    -2.470971   -1.3001495  0.065069431    -2.470971    1.1708215  1646021 
  571000   0.99949983   -2.4704475   -2.4704475   -1.3001276  0.066912296   -2.4704475    1.1703198  1646021 
  572000   0.99993461   -2.4709948   -2.4709948   -1.3001659  0.065853906   -2.4709948    1.1708289  1646021 
  573000     1.000054   -2.4712424   -2.4712424   -1.3002737   0.06600651   -2.4712424    1.1709687  1646021 
  574000   0.99908924    -2.469873    -2.469873   -1.3000339  0.068775309    -2.469873    1.1698391  1646021 
  575000    1.0007259   -2.4719312   -2.4719312   -1.3001758  0.062958707   -2.4719312    1.1717554  1646021 
  576000    1.0006153   -2.4714392   -2.4714392   -1.2998132  0.065656923   -2.4714392     1.171626  1646021 
  577000    1.0003213    -2.471285    -2.471285   -1.3000034  0.065437546    -2.471285    1.1712816  1646021 
  578000    1.0009356   -2.4717234   -2.4717234   -1.2997225  0.066095782   -2.4717234     1.172001  1646021 
  579000    1.0007171   -2.4715402   -2.4715402   -1.2997951   0.06481306   -2.4715402    1.1717451  1646021 
  580000   0.99973278   -2.4708505   -2.4708505   -1.3002579  0.063539764   -2.4708505    1.1705926  1646021 
  581000   0.99957977   -2.4708521   -2.4708521   -1.3004387  0.063321177   -2.4708521    1.1704134  1646021 
  582000    1.0004536   -2.4725663   -2.4725663   -1.3011297  0.064739438   -2.4725663    1.1714366  1646021 
  583000   0.99991451   -2.4718099   -2.4718099   -1.3010045  0.062480171   -2.4718099    1.1708054  1646021 
  584000    1.0003188   -2.4723048   -2.4723048    -1.301026  0.063220984   -2.4723048    1.1712788  1646021 
  585000   0.99939188   -2.4716937   -2.4716937   -1.3015003  0.065572378   -2.4716937    1.1701934  1646021 
  586000    1.0005535   -2.4726231   -2.4726231   -1.3010695  0.064967152   -2.4726231    1.1715536  1646021 
  587000    1.0004814   -2.4725353   -2.4725353   -1.3010661  0.063357109   -2.4725353    1.1714692  1646021 
  588000   0.99983479   -2.4715196   -2.4715196   -1.3008076  0.066850212   -2.4715196     1.170712  1646021 
  589000   0.99975382    -2.471793    -2.471793   -1.3011758  0.063272742    -2.471793    1.1706172  1646021 
  590000   0.99988242   -2.4717507   -2.4717507   -1.3009829  0.066742735   -2.4717507    1.1707678  1646021 
  591000    1.0003348   -2.4724115   -2.4724115   -1.3011141  0.057865304   -2.4724115    1.1712975  1646021 
  592000    1.0006676   -2.4726208   -2.4726208   -1.3009337  0.065271119   -2.4726208    1.1716871  1646021 
  593000    1.0003947   -2.4728717   -2.4728717    -1.301504  0.063200014   -2.4728717    1.1713677  1646021 
  594000   0.99991477   -2.4721789   -2.4721789   -1.3013732  0.064524616   -2.4721789    1.1708057  1646021 
  595000   0.99980218   -2.4720598   -2.4720598    -1.301386  0.065691669   -2.4720598    1.1706739  1646021 
  596000    0.9998696   -2.4716824   -2.4716824   -1.3009296  0.063625529   -2.4716824    1.1707528  1646021 
  597000    1.0001648   -2.4723654   -2.4723654    -1.301267  0.066146139   -2.4723654    1.1710985  1646021 
  598000    0.9997539   -2.4710209   -2.4710209   -1.3004036   0.06665669   -2.4710209    1.1706173  1646021 
  599000    1.0005631   -2.4718784   -2.4718784   -1.3003136  0.063304483   -2.4718784    1.1715648  1646021 
  600000    1.0009104   -2.4729114   -2.4729114     -1.30094  0.064423727   -2.4729114    1.1719715  1646021 
  601000    1.0003064   -2.4717419   -2.4717419   -1.3004776  0.062737514   -2.4717419    1.1712643  1646021 
  602000     1.001237   -2.4724799   -2.4724799    -1.300126  0.069180868   -2.4724799    1.1723539  1646021 
  603000    1.0005477   -2.4719241   -2.4719241   -1.3003773  0.068232695   -2.4719241    1.1715468  1646021 
  604000    1.0009867   -2.4724801   -2.4724801   -1.3004193  0.067809072   -2.4724801    1.1720608  1646021 
  605000    1.0007055    -2.472193    -2.472193   -1.3004614  0.065808335    -2.472193    1.1717315  1646021 
  606000    1.0002735   -2.4714643   -2.4714643   -1.3002387  0.068309072   -2.4714643    1.1712257  1646021 
  607000    1.0000907   -2.4709144   -2.4709144   -1.2999028  0.068386294   -2.4709144    1.1710116  1646021 
  608000     1.000376   -2.4711187   -2.4711187    -1.299773  0.065681146   -2.4711187    1.1713457  1646021 
  609000    1.0004086   -2.4709465   -2.4709465   -1.2995626  0.067203948   -2.4709465    1.1713839  1646021 
  610000    1.0014274    -2.471944    -2.471944   -1.2993672  0.062912459    -2.471944    1.1725768  1646021 
  611000   0.99965409   -2.4702909   -2.4702909   -1.2997905   0.06565185   -2.4702909    1.1705004  1646021 
  612000   0.99998929   -2.4705096   -2.4705096   -1.2996167  0.062402167   -2.4705096    1.1708929  1646021 
  613000    0.9999318   -2.4706248   -2.4706248   -1.2997992  0.064888474   -2.4706248    1.1708256  1646021 
  614000   0.99942412   -2.4697775   -2.4697775   -1.2995463  0.064373444   -2.4697775    1.1702312  1646021 
  615000   0.99991127   -2.4702899   -2.4702899   -1.2994883  0.063937436   -2.4702899    1.1708016  1646021 
  616000    1.0006872   -2.4709157   -2.4709157   -1.2992056  0.062330383   -2.4709157    1.1717102  1646021 
  617000    1.0000423   -2.4701086   -2.4701086   -1.2991536   0.06488108   -2.4701086     1.170955  1646021 
  618000   0.99979138    -2.469698    -2.469698   -1.2990368  0.066163027    -2.469698    1.1706612  1646021 
  619000   0.99897355   -2.4690814   -2.4690814   -1.2993778  0.064396012   -2.4690814    1.1697036  1646021 
  620000   0.99841195   -2.4682479   -2.4682479   -1.2992019  0.067310804   -2.4682479     1.169046  1646021 
  621000   0.99918097    -2.469463    -2.469463   -1.2995165  0.062640122    -2.469463    1.1699465  1646021 
  622000   0.99929243   -2.4691657   -2.4691657   -1.2990887  0.066922625   -2.4691657     1.170077  1646021 
  623000   0.99943609   -2.4693345   -2.4693345   -1.2990894  0.066364524   -2.4693345    1.1702452  1646021 
  624000   0.99924585   -2.4688705   -2.4688705   -1.2988481  0.063962971   -2.4688705    1.1700224  1646021 
  625000    1.0000376   -2.4700397   -2.4700397   -1.2990902  0.062450042   -2.4700397    1.1709495  1646021 
  626000   0.99958504   -2.4691691   -2.4691691   -1.2987495  0.063026516   -2.4691691    1.1704196  1646021 
  627000   0.99888426   -2.4683312   -2.4683312   -1.2987322  0.065989234   -2.4683312    1.1695991  1646021 
  628000   0.99899057   -2.4683603   -2.4683603   -1.2986367  0.062582123   -2.4683603    1.1697235  1646021 
  629000   0.99939896   -2.4687126   -2.4687126   -1.2985108  0.059054879   -2.4687126    1.1702017  1646021 
  630000   0.99923723   -2.4677427   -2.4677427   -1.2977303  0.064956647   -2.4677427    1.1700123  1646021 
  631000      1.00012   -2.4686975   -2.4686975   -1.2976515  0.060899062   -2.4686975     1.171046  1646021 
  632000    1.0006397   -2.4692486   -2.4692486   -1.2975942  0.065568659   -2.4692486    1.1716545  1646021 
  633000    1.0003534    -2.468927    -2.468927   -1.2976077  0.065742234    -2.468927    1.1713193  1646021 
  634000    1.0003289    -2.468273    -2.468273   -1.2969824  0.063079269    -2.468273    1.1712906  1646021 
  635000    1.0002455   -2.4681181   -2.4681181   -1.2969253  0.061481229   -2.4681181    1.1711929  1646021 
  636000    1.0006212   -2.4678927   -2.4678927   -1.2962599  0.062863522   -2.4678927    1.1716328  1646021 
  637000   0.99954595   -2.4669996   -2.4669996   -1.2966258  0.061952132   -2.4669996    1.1703738  1646021 
  638000   0.99913861   -2.4664699   -2.4664699    -1.296573  0.063397302   -2.4664699    1.1698969  1646021 
  639000     1.000109   -2.4676556   -2.4676556   -1.2966225  0.065057579   -2.4676556    1.1710331  1646021 
  640000    1.0002762   -2.4678364   -2.4678364   -1.2966076  0.063369718   -2.4678364    1.1712288  1646021 
  641000    1.0002936    -2.467233    -2.467233   -1.2959838  0.062268703    -2.467233    1.1712492  1646021 
  642000    1.0007665   -2.4683004   -2.4683004   -1.2964974  0.064367533   -2.4683004     1.171803  1646021 
[...]
 9832000    1.0094446   -2.4332988   -2.4332988   -1.2513346  0.071121408   -2.4332988    1.1819642  1646021 
 9833000     1.009683   -2.4333006   -2.4333006   -1.2510572  0.068989216   -2.4333006    1.1822434  1646021 
 9834000    1.0101769   -2.4337304   -2.4337304   -1.2509088  0.065531832   -2.4337304    1.1828216  1646021 
 9835000    1.0096365   -2.4332084   -2.4332084   -1.2510194   0.07166734   -2.4332084    1.1821889  1646021 
 9836000    1.0095131   -2.4334159   -2.4334159   -1.2513715  0.072386074   -2.4334159    1.1820444  1646021 
 9837000    1.0093333   -2.4333755   -2.4333755   -1.2515416   0.06875594   -2.4333755    1.1818339  1646021 
 9838000    1.0097569   -2.4337922   -2.4337922   -1.2514623   0.07233635   -2.4337922    1.1823299  1646021 
 9839000    1.0097743   -2.4339732   -2.4339732   -1.2516229  0.069631664   -2.4339732    1.1823503  1646021 
 9840000    1.0096057   -2.4335297   -2.4335297   -1.2513769  0.071633956   -2.4335297    1.1821528  1646021 
 9841000    1.0102045    -2.434692    -2.434692    -1.251838  0.069577308    -2.434692    1.1828539  1646021 
 9842000    1.0094465   -2.4334541   -2.4334541   -1.2514877  0.071423284   -2.4334541    1.1819665  1646021 
 9843000    1.0099117   -2.4342756   -2.4342756   -1.2517644  0.069164422   -2.4342756    1.1825111  1646021 
 9844000    1.0094466   -2.4339264   -2.4339264   -1.2519598  0.068548895   -2.4339264    1.1819666  1646021 
 9845000     1.010287   -2.4350478   -2.4350478   -1.2520973  0.072185307   -2.4350478    1.1829505  1646021 
 9846000    1.0105988   -2.4353704   -2.4353704   -1.2520547  0.068618209   -2.4353704    1.1833156  1646021 
 9847000     1.009675   -2.4341976   -2.4341976   -1.2519636  0.068772635   -2.4341976     1.182234  1646021 
 9848000    1.0101284   -2.4351126   -2.4351126   -1.2523478  0.068656203   -2.4351126    1.1827649  1646021 
 9849000    1.0097279   -2.4348852   -2.4348852   -1.2525892  0.072334499   -2.4348852    1.1822959  1646021 
 9850000    1.0090455   -2.4343623   -2.4343623   -1.2528655  0.068838197   -2.4343623    1.1814968  1646021 
 9851000    1.0081783    -2.433533    -2.433533   -1.2530515  0.070506816    -2.433533    1.1804814  1646021 
 9852000    1.0097178   -2.4344085   -2.4344085   -1.2521244  0.064231412   -2.4344085    1.1822841  1646021 
 9853000     1.009839   -2.4352075   -2.4352075   -1.2527815  0.069870443   -2.4352075    1.1824261  1646021 
 9854000    1.0090109   -2.4340387   -2.4340387   -1.2525823  0.072066068   -2.4340387    1.1814564  1646021 
 9855000    1.0085963   -2.4336547   -2.4336547   -1.2526839  0.070492031   -2.4336547    1.1809709  1646021 
 9856000    1.0089043   -2.4336636   -2.4336636    -1.252332  0.069006058   -2.4336636    1.1813316  1646021 
 9857000     1.010505   -2.4358847   -2.4358847   -1.2526788   0.06953587   -2.4358847    1.1832058  1646021 
 9858000    1.0081947   -2.4330101   -2.4330101   -1.2525095  0.069177147   -2.4330101    1.1805007  1646021 
 9859000    1.0099795   -2.4354344   -2.4354344   -1.2528439  0.068699665   -2.4354344    1.1825905  1646021 
 9860000    1.0095935   -2.4343619   -2.4343619   -1.2522233  0.067907065   -2.4343619    1.1821386  1646021 
 9861000    1.0097949   -2.4351392   -2.4351392   -1.2527648  0.070346996   -2.4351392    1.1823744  1646021 
 9862000    1.0099945   -2.4355419   -2.4355419   -1.2529337  0.067986552   -2.4355419    1.1826081  1646021 
 9863000    1.0095449   -2.4347196   -2.4347196   -1.2526379  0.072663643   -2.4347196    1.1820817  1646021 
 9864000    1.0099906   -2.4356813   -2.4356813   -1.2530778  0.070041585   -2.4356813    1.1826036  1646021 
 9865000    1.0099289   -2.4356679   -2.4356679   -1.2531366  0.069258715   -2.4356679    1.1825313  1646021 
 9866000    1.0106183   -2.4365748   -2.4365748   -1.2532363  0.071981145   -2.4365748    1.1833385  1646021 
 9867000    1.0105675   -2.4369886   -2.4369886   -1.2537095  0.068562621   -2.4369886    1.1832791  1646021 
 9868000    1.0104882   -2.4366403   -2.4366403   -1.2534541  0.070808703   -2.4366403    1.1831861  1646021 
 9869000    1.0099826   -2.4357976   -2.4357976   -1.2532034  0.070235564   -2.4357976    1.1825942  1646021 
 9870000    1.0098083   -2.4353929   -2.4353929   -1.2530029   0.06797681   -2.4353929    1.1823901  1646021 
 9871000    1.0099851   -2.4356555   -2.4356555   -1.2530583  0.070610315   -2.4356555    1.1825971  1646021 
 9872000    1.0106192   -2.4363991   -2.4363991   -1.2530596  0.070841047   -2.4363991    1.1833395  1646021 
 9873000    1.0089838   -2.4351162   -2.4351162   -1.2536916  0.067779803   -2.4351162    1.1814246  1646021 
 9874000    1.0098421   -2.4359648   -2.4359648   -1.2535351   0.07263085   -2.4359648    1.1824297  1646021 
 9875000    1.0097421   -2.4358569   -2.4358569   -1.2535443  0.071442632   -2.4358569    1.1823126  1646021 
 9876000    1.0096484   -2.4356948   -2.4356948    -1.253492  0.067075762   -2.4356948    1.1822028  1646021 
 9877000    1.0100048   -2.4363578   -2.4363578   -1.2537377  0.069901855   -2.4363578    1.1826201  1646021 
 9878000    1.0085567   -2.4343827   -2.4343827   -1.2534581  0.069778027   -2.4343827    1.1809246  1646021 
 9879000    1.0106554    -2.436777    -2.436777    -1.253395  0.073782728    -2.436777     1.183382  1646021 
 9880000    1.0100469   -2.4360045   -2.4360045    -1.253335  0.071112811   -2.4360045    1.1826695  1646021 
 9881000    1.0093566   -2.4354332   -2.4354332    -1.253572   0.06931204   -2.4354332    1.1818612  1646021 
 9882000    1.0100188   -2.4362015   -2.4362015    -1.253565  0.067573152   -2.4362015    1.1826365  1646021 
 9883000    1.0108447   -2.4372658   -2.4372658   -1.2536622  0.068469303   -2.4372658    1.1836036  1646021 
 9884000    1.0106325    -2.437007    -2.437007   -1.2536519  0.067650603    -2.437007    1.1833551  1646021 
 9885000    1.0095581   -2.4354014   -2.4354014   -1.2533043  0.070046655   -2.4354014    1.1820971  1646021 
 9886000    1.0094731   -2.4354344   -2.4354344   -1.2534368  0.068356287   -2.4354344    1.1819976  1646021 
 9887000    1.0088562   -2.4345502   -2.4345502   -1.2532749  0.070686947   -2.4345502    1.1812753  1646021 
 9888000    1.0091255   -2.4351176   -2.4351176    -1.253527  0.069969357   -2.4351176    1.1815905  1646021 
 9889000    1.0091552   -2.4352042   -2.4352042   -1.2535788  0.073829681   -2.4352042    1.1816254  1646021 
 9890000    1.0106771   -2.4362044   -2.4362044   -1.2527971  0.071020994   -2.4362044    1.1834073  1646021 
 9891000    1.0096426   -2.4348752   -2.4348752   -1.2526791  0.070014528   -2.4348752    1.1821961  1646021 
 9892000     1.009613    -2.434971    -2.434971   -1.2528097  0.069906714    -2.434971    1.1821613  1646021 
 9893000    1.0093246   -2.4348073   -2.4348073   -1.2529835  0.070403918   -2.4348073    1.1818238  1646021 
 9894000    1.0095509   -2.4347748   -2.4347748   -1.2526861  0.068708065   -2.4347748    1.1820886  1646021 
 9895000    1.0094741   -2.4342297   -2.4342297    -1.252231  0.072110123   -2.4342297    1.1819987  1646021 
 9896000    1.0103914   -2.4354542   -2.4354542   -1.2523813  0.063488478   -2.4354542    1.1830729  1646021 
 9897000    1.0094747   -2.4345666   -2.4345666    -1.252567  0.067350559   -2.4345666    1.1819995  1646021 
 9898000    1.0093366   -2.4343128   -2.4343128   -1.2524751  0.072405722   -2.4343128    1.1818378  1646021 
 9899000    1.0103291   -2.4354985   -2.4354985   -1.2524986   0.06932898   -2.4354985    1.1829998  1646021 
 9900000    1.0105024   -2.4353571   -2.4353571   -1.2521543  0.066234852   -2.4353571    1.1832027  1646021 
 9901000    1.0097033   -2.4344823   -2.4344823   -1.2522152  0.069336499   -2.4344823    1.1822671  1646021 
 9902000    1.0096151   -2.4346219   -2.4346219   -1.2524581  0.071499688   -2.4346219    1.1821639  1646021 
 9903000    1.0098587   -2.4344522   -2.4344522   -1.2520031  0.074410114   -2.4344522    1.1824491  1646021 
 9904000    1.0101307   -2.4353111   -2.4353111   -1.2525435  0.071462137   -2.4353111    1.1827676  1646021 
 9905000    1.0112038   -2.4359752   -2.4359752   -1.2519511  0.072468834   -2.4359752     1.184024  1646021 
 9906000    1.0097685   -2.4345899   -2.4345899   -1.2522464   0.07088205   -2.4345899    1.1823435  1646021 
 9907000    1.0096991   -2.4350464   -2.4350464   -1.2527843  0.070027324   -2.4350464    1.1822622  1646021 
 9908000    1.0085275   -2.4337123   -2.4337123   -1.2528219  0.074592657   -2.4337123    1.1808904  1646021 
 9909000    1.0095319   -2.4345441   -2.4345441   -1.2524777  0.072926018   -2.4345441    1.1820664  1646021 
 9910000    1.0091185   -2.4347968   -2.4347968   -1.2532143  0.070144567   -2.4347968    1.1815824  1646021 
 9911000    1.0085412   -2.4342971   -2.4342971   -1.2533907  0.068989882   -2.4342971    1.1809065  1646021 
 9912000     1.009336   -2.4348455   -2.4348455   -1.2530084  0.069641132   -2.4348455    1.1818371  1646021 
 9913000    1.0085055   -2.4339372   -2.4339372   -1.2530726  0.068279163   -2.4339372    1.1808646  1646021 
 9914000    1.0088817   -2.4341664   -2.4341664   -1.2528612  0.065684491   -2.4341664    1.1813052  1646021 
 9915000    1.0089207   -2.4344088   -2.4344088    -1.253058  0.070745886   -2.4344088    1.1813507  1646021 
 9916000    1.0092576   -2.4344635   -2.4344635   -1.2527182  0.071765154   -2.4344635    1.1817453  1646021 
 9917000    1.0098016   -2.4349968   -2.4349968   -1.2526145  0.068830215   -2.4349968    1.1823822  1646021 
 9918000    1.0096849   -2.4347616   -2.4347616    -1.252516  0.071785528   -2.4347616    1.1822456  1646021 
 9919000    1.0094676   -2.4345981   -2.4345981    -1.252607  0.070125583   -2.4345981    1.1819912  1646021 
 9920000    1.0089429   -2.4345453   -2.4345453   -1.2531685  0.070840448   -2.4345453    1.1813767  1646021 
 9921000    1.0093415   -2.4355741   -2.4355741   -1.2537306  0.069289563   -2.4355741    1.1818435  1646021 
 9922000    1.0089536   -2.4346709   -2.4346709   -1.2532816  0.070288169   -2.4346709    1.1813893  1646021 
 9923000    1.0089193   -2.4345902   -2.4345902   -1.2532411  0.069728284   -2.4345902    1.1813491  1646021 
 9924000    1.0093371   -2.4349932   -2.4349932   -1.2531549  0.070626473   -2.4349932    1.1818384  1646021 
 9925000    1.0096733   -2.4348225   -2.4348225   -1.2525906  0.069395849   -2.4348225    1.1822319  1646021 
 9926000    1.0101861   -2.4351672   -2.4351672   -1.2523348  0.070444603   -2.4351672    1.1828324  1646021 
 9927000    1.0091326   -2.4341011   -2.4341011   -1.2525023  0.071820268   -2.4341011    1.1815988  1646021 
 9928000    1.0095966   -2.4345397   -2.4345397   -1.2523975  0.071650435   -2.4345397    1.1821422  1646021 
 9929000    1.0101618   -2.4350877   -2.4350877   -1.2522837  0.073782262   -2.4350877     1.182804  1646021 
 9930000    1.0101919   -2.4351206   -2.4351206   -1.2522813  0.070469298   -2.4351206    1.1828393  1646021 
 9931000    1.0093557   -2.4343009   -2.4343009   -1.2524408  0.071155954   -2.4343009    1.1818601  1646021 
 9932000    1.0100986   -2.4353384   -2.4353384   -1.2526085  0.069149677   -2.4353384      1.18273  1646021 
 9933000    1.0093964   -2.4344382   -2.4344382   -1.2525304  0.073728383   -2.4344382    1.1819078  1646021 
 9934000    1.0091441   -2.4340913   -2.4340913    -1.252479  0.069390511   -2.4340913    1.1816123  1646021 
 9935000     1.010003   -2.4349039   -2.4349039   -1.2522858   0.06998589   -2.4349039    1.1826181  1646021 
 9936000    1.0100933   -2.4352616   -2.4352616   -1.2525379  0.066775355   -2.4352616    1.1827237  1646021 
 9937000     1.009413   -2.4347647   -2.4347647   -1.2528375  0.068910137   -2.4347647    1.1819272  1646021 
 9938000      1.00992   -2.4355504   -2.4355504   -1.2530295  0.069747698   -2.4355504    1.1825209  1646021 
 9939000      1.00932   -2.4351296   -2.4351296   -1.2533112  0.068100616   -2.4351296    1.1818184  1646021 
 9940000    1.0095582   -2.4351896   -2.4351896   -1.2530924  0.070613738   -2.4351896    1.1820972  1646021 
 9941000    1.0091589   -2.4346572   -2.4346572   -1.2530275  0.073914754   -2.4346572    1.1816297  1646021 
 9942000    1.0087454   -2.4341557   -2.4341557   -1.2530102  0.071539541   -2.4341557    1.1811455  1646021 
 9943000    1.0092881   -2.4350684   -2.4350684   -1.2532874  0.068565655   -2.4350684    1.1817809  1646021 
 9944000    1.0088669    -2.434829    -2.434829   -1.2535412  0.070327256    -2.434829    1.1812878  1646021 
 9945000    1.0097193    -2.435348    -2.435348   -1.2530622  0.070018451    -2.435348    1.1822859  1646021 
 9946000    1.0093937   -2.4352432   -2.4352432   -1.2533386   0.07182805   -2.4352432    1.1819046  1646021 
 9947000    1.0096757   -2.4355646   -2.4355646   -1.2533298  0.072116648   -2.4355646    1.1822348  1646021 
 9948000    1.0094395   -2.4354831   -2.4354831   -1.2535249   0.07075676   -2.4354831    1.1819582  1646021 
 9949000     1.009309   -2.4350601   -2.4350601   -1.2532547  0.070769384   -2.4350601    1.1818054  1646021 
 9950000    1.0097001   -2.4346002   -2.4346002   -1.2523369  0.068097142   -2.4346002    1.1822633  1646021 
 9951000    1.0098238   -2.4343444   -2.4343444   -1.2519362  0.070428565   -2.4343444    1.1824082  1646021 
 9952000    1.0097839    -2.434485    -2.434485   -1.2521235  0.070485567    -2.434485    1.1823615  1646021 
 9953000    1.0091252    -2.434332    -2.434332   -1.2527418   0.07445773    -2.434332    1.1815903  1646021 
 9954000    1.0093983   -2.4345262   -2.4345262   -1.2526163  0.070734215   -2.4345262    1.1819099  1646021 
 9955000    1.0093846   -2.4340268   -2.4340268   -1.2521329  0.069814705   -2.4340268    1.1818939  1646021 
 9956000    1.0099577    -2.434637    -2.434637    -1.252072  0.069724468    -2.434637     1.182565  1646021 
 9957000    1.0095663   -2.4343298   -2.4343298   -1.2522231  0.070690335   -2.4343298    1.1821067  1646021 
 9958000    1.0093724    -2.434294    -2.434294   -1.2524144  0.068426961    -2.434294    1.1818796  1646021 
 9959000     1.009231   -2.4337738   -2.4337738   -1.2520597  0.069908191   -2.4337738    1.1817141  1646021 
 9960000    1.0096875    -2.434028    -2.434028   -1.2517794  0.070823811    -2.434028    1.1822486  1646021 
 9961000    1.0103197   -2.4349034   -2.4349034   -1.2519145  0.069842374   -2.4349034    1.1829889  1646021 
 9962000    1.0092932   -2.4337998   -2.4337998   -1.2520128  0.070958983   -2.4337998    1.1817869  1646021 
 9963000    1.0092962   -2.4335408   -2.4335408   -1.2517503  0.073127045   -2.4335408    1.1817905  1646021 
 9964000    1.0092911   -2.4338512   -2.4338512   -1.2520667  0.069704692   -2.4338512    1.1817844  1646021 
 9965000    1.0094961   -2.4339425   -2.4339425   -1.2519179  0.068134947   -2.4339425    1.1820246  1646021 
 9966000    1.0093774   -2.4338719   -2.4338719   -1.2519864  0.067836771   -2.4338719    1.1818856  1646021 
 9967000    1.0097014    -2.434287    -2.434287    -1.252022  0.069229612    -2.434287     1.182265  1646021 
 9968000    1.0086821   -2.4335478   -2.4335478   -1.2524764   0.06674708   -2.4335478    1.1810714  1646021 
 9969000    1.0086824   -2.4339059   -2.4339059   -1.2528341  0.070738757   -2.4339059    1.1810718  1646021 
 9970000    1.0076999   -2.4328568   -2.4328568   -1.2529355   0.07346912   -2.4328568    1.1799213  1646021 
 9971000    1.0096222   -2.4349539   -2.4349539   -1.2527817  0.069958611   -2.4349539    1.1821722  1646021 
 9972000    1.0097084   -2.4350479   -2.4350479   -1.2527749  0.070308942   -2.4350479    1.1822731  1646021 
 9973000    1.0097218   -2.4347611   -2.4347611   -1.2524723  0.068518166   -2.4347611    1.1822888  1646021 
 9974000    1.0093108   -2.4342115   -2.4342115    -1.252404  0.069911296   -2.4342115    1.1818075  1646021 
 9975000     1.009154   -2.4343714   -2.4343714   -1.2527475   0.06942353   -2.4343714     1.181624  1646021 
 9976000    1.0084823   -2.4333121   -2.4333121   -1.2524746  0.070022361   -2.4333121    1.1808375  1646021 
 9977000     1.009341   -2.4341413   -2.4341413   -1.2522984  0.069098481   -2.4341413    1.1818429  1646021 
 9978000    1.0093122   -2.4338114   -2.4338114   -1.2520023  0.068947055   -2.4338114    1.1818092  1646021 
 9979000    1.0084318   -2.4332368   -2.4332368   -1.2524585  0.070971879   -2.4332368    1.1807783  1646021 
 9980000    1.0088912   -2.4338571   -2.4338571   -1.2525408  0.068334349   -2.4338571    1.1813163  1646021 
 9981000    1.0088105   -2.4337789   -2.4337789   -1.2525572  0.069493198   -2.4337789    1.1812217  1646021 
 9982000    1.0093164   -2.4346689   -2.4346689   -1.2528549  0.068422296   -2.4346689    1.1818141  1646021 
 9983000    1.0087055   -2.4334928   -2.4334928    -1.252394  0.069313794   -2.4334928    1.1810988  1646021 
 9984000    1.0087837   -2.4336586   -2.4336586   -1.2524683  0.067664051   -2.4336586    1.1811903  1646021 
 9985000    1.0091919   -2.4339477   -2.4339477   -1.2522794  0.068905582   -2.4339477    1.1816684  1646021 
 9986000    1.0099733   -2.4350332   -2.4350332   -1.2524499  0.071086162   -2.4350332    1.1825833  1646021 
 9987000    1.0089985   -2.4335921   -2.4335921   -1.2521502  0.069886706   -2.4335921    1.1814419  1646021 
 9988000    1.0095361   -2.4338779   -2.4338779   -1.2518066  0.070842935   -2.4338779    1.1820713  1646021 
 9989000    1.0091922   -2.4336182   -2.4336182   -1.2519495  0.070043179   -2.4336182    1.1816687  1646021 
 9990000    1.0101011   -2.4340234   -2.4340234   -1.2512905  0.066799055   -2.4340234    1.1827329  1646021 
 9991000     1.009894   -2.4338633   -2.4338633   -1.2513729  0.068848857   -2.4338633    1.1824904  1646021 
 9992000    1.0090438   -2.4331009   -2.4331009   -1.2516059  0.070975712   -2.4331009    1.1814949  1646021 
 9993000    1.0094097   -2.4334032   -2.4334032   -1.2514799  0.067107791   -2.4334032    1.1819233  1646021 
 9994000    1.0092198   -2.4332057   -2.4332057   -1.2515047   0.06839681   -2.4332057     1.181701  1646021 
 9995000    1.0093089   -2.4332923   -2.4332923    -1.251487  0.069356177   -2.4332923    1.1818053  1646021 
 9996000    1.0089873   -2.4329332   -2.4329332   -1.2515044  0.068781495   -2.4329332    1.1814288  1646021 
 9997000    1.0096866   -2.4335173   -2.4335173   -1.2512698  0.070035191   -2.4335173    1.1822475  1646021 
 9998000    1.0085546   -2.4319832   -2.4319832   -1.2510611  0.070006842   -2.4319832    1.1809221  1646021 
 9999000    1.0101909   -2.4337279   -2.4337279   -1.2508898  0.070441155   -2.4337279    1.1828381  1646021 
10000000    1.0096895   -2.4334067   -2.4334067   -1.2511557   0.06896159   -2.4334067    1.1822509  1646021 
Loop time of 17377.4 on 768 procs for 10000000 steps with 1646021 atoms

Performance: 248599.452 tau/day, 575.462 timesteps/s
90.3% CPU use with 768 MPI tasks x 1 OpenMP threads

MPI task timing breakdown:
Section |  min time  |  avg time  |  max time  |%varavg|  %CPU | %total
-----------------------------------------------------------------------
Pair    | 1506.3     | 4700.1     | 6564.7     |1724.8 |  91.2 | 27.05
Bond    | 6.3701     | 6.7666     | 7.5564     |   6.0 | 100.0 |  0.04
Neigh   | 1750.4     | 3919       | 4514.7     | 849.3 |  98.7 | 22.55
Comm    | 2879.9     | 5137.6     | 9735.9     |1927.9 |  86.6 | 29.56
Output  | 532.91     | 534.64     | 535.51     |   2.7 |  75.8 |  3.08
Modify  | 2239.5     | 2783.5     | 3727.6     | 541.7 |  87.6 | 16.02
Other   |            | 295.8      |            |       |       |  1.70

Nlocal:        2143.26 ave        2556 max        1692 min
Histogram: 2 5 19 79 259 223 114 44 15 8
Nghost:        4086.48 ave        6384 max        2476 min
Histogram: 60 32 177 155 113 73 55 47 35 21
Neighs:        45045.0 ave       67405 max        9982 min
Histogram: 61 38 41 49 57 69 59 109 212 73

Total # of neighbors = 34594578
Ave neighs/atom = 21.017094
Ave special neighs/atom = 0.0000000
Neighbor list builds = 1000000
Dangerous builds = 990000

Total wall time: 4:49:54
