LAMMPS (24 Dec 2020)
OMP_NUM_THREADS environment is not set. Defaulting to 1 thread. (src/comm.cpp:94)
  using 1 OpenMP thread(s) per MPI task
#Read the equilibrated lj fluid and add nanocubes

units           lj
atom_style      full
atom_modify     map array first cubes
dimension       3
boundary        p p f
pair_style      lj/cut/opt 2.5

variable        sigma           equal 1.0
variable        epsilon         equal 1.0
read_restart	restart.dat.10000000
Reading restart file ...
  restart file = 24 Dec 2020, LAMMPS = 24 Dec 2020
WARNING: Restart file used different # of processors: 192 vs. 288 (src/read_restart.cpp:697)
  restoring atom style full from restart
  orthogonal box = (0.0000000 0.0000000 0.0000000) to (80.000000 80.000000 160.00000)
  6 by 4 by 12 MPI processor grid
  restoring pair style lj/cut/opt from restart
  443961 atoms
Finding 1-2 1-3 1-4 neighbors ...
  special bond factors lj:    0        0        0       
  special bond factors coul:  0        0        0       
     0 = max # of 1-2 neighbors
     0 = max # of 1-3 neighbors
     0 = max # of 1-4 neighbors
     1 = max # of special neighbors
  special bonds CPU = 2.391 seconds
  read_restart CPU = 2.830 seconds

group		solvent type 1
443961 atoms in group solvent

read_data	data_96_seed2.cubes group cubes add append
Reading data file ...
  orthogonal box = (0.0000000 0.0000000 0.0000000) to (80.000000 80.000000 160.00000)
  6 by 4 by 12 MPI processor grid
  reading atoms ...
  109728 atoms
  reading velocities ...
  109728 velocities
Finding 1-2 1-3 1-4 neighbors ...
  special bond factors lj:    0        0        0       
  special bond factors coul:  0        0        0       
     0 = max # of 1-2 neighbors
     0 = max # of 1-3 neighbors
     0 = max # of 1-4 neighbors
     1 = max # of special neighbors
  special bonds CPU = 0.058 seconds
  read_data CPU = 0.316 seconds

group 		hull  type 2
42816 atoms in group hull
group 		dummy type 3
66912 atoms in group dummy

neighbor      0.4 bin
neigh_modify  exclude molecule/intra cubes


pair_modify   shift yes

pair_coeff    1 1 1.0 1.0 #solvent
pair_coeff    2 2 1.0 1.0 1.12 #np
pair_coeff    3 3 0.0 0.0 0.0 #dummy
pair_coeff    2 3 0.0 0.0 0.0 #np dummy
pair_coeff    1 2 ${sol} 1.0  #np solvent
pair_coeff    1 2 .50 1.0  
pair_coeff    1 3 0.0 0.0 2.5 #dummy solvent

# delete solvent where the cubes are
delete_atoms  overlap 1.0 solvent cubes
System init for delete_atoms ...
Unused restart file peratom fix info:
  fix style: STORE, fix ID: bin1_COMPUTE_STORE
Neighbor list info ...
  update every 1 steps, delay 10 steps, check yes
  max neighbors/atom: 2000, page size: 100000
  master list distance cutoff = 2.9
  ghost atom cutoff = 2.9
  binsize = 1.45, bins = 56 56 111
  2 neighbor lists, perpetual/occasional/extra = 1 1 0
  (1) command delete_atoms, occasional
      attributes: full, newton on
      pair build: full/bin
      stencil: full/bin/3d
      bin: standard
  (2) pair lj/cut/opt, perpetual
      attributes: half, newton on
      pair build: half/bin/newton
      stencil: half/bin/3d/newton
      bin: standard
WARNING: Delete_atoms cutoff > minimum neighbor cutoff (src/delete_atoms.cpp:307)
WARNING: Ignoring 'compress yes' for molecular system (src/delete_atoms.cpp:125)
Deleted 77829 atoms, new total = 475860

pair_coeff    1 1 1.0 1.0 #solvent
pair_coeff    2 2 1.0 1.0 1.12 #np
pair_coeff    3 3 0.0 0.0 0.0 #dummy
pair_coeff    2 3 0.0 0.0 0.0 #np dummy
pair_coeff    1 2 ${sol} 1.0  #np solvent
pair_coeff    1 2 .50 1.0  
pair_coeff    1 3 0.0 0.0 0.0 #dummy solvent


comm_modify   mode multi cutoff/multi 1 2.5 cutoff/multi 2 2.5 cutoff/multi 3 6.95

reset_timestep 	0

balance 	1.05 shift z 10 1.05
Balancing ...
Neighbor list info ...
  update every 1 steps, delay 10 steps, check yes
  max neighbors/atom: 2000, page size: 100000
  master list distance cutoff = 2.9
  ghost atom cutoff = 6.95
  binsize = 1.45, bins = 56 56 111
  1 neighbor lists, perpetual/occasional/extra = 1 0 0
  (1) pair lj/cut/opt, perpetual
      attributes: half, newton on
      pair build: half/bin/newton
      stencil: half/bin/3d/newton
      bin: standard
 rebalancing time: 0.006 seconds
  iteration count = 4
  initial/final maximal load/proc = 2532.0000 2577.0000
  initial/final imbalance factor  = 1.5324171 1.5596520
  x cuts: 0.0000000 0.16666667 0.33333333 0.50000000 0.66666667 0.83333333 1.0000000
  y cuts: 0.0000000 0.25000000 0.50000000 0.75000000 1.0000000
  z cuts: 0.0000000 0.067708333 0.13020833 0.19270833 0.25520833 0.32291667 0.38541667 0.44791667 0.51041667 0.57812500 0.63020833 0.68229167 1.0000000

####################### WALLS ###########################

variable       epsilonWall equal 2*${epsilon}
variable       epsilonWall equal 2*1
variable       repulsive   equal   0.7147*${sigma}
variable       repulsive   equal   0.7147*1
variable       full	   equal   3*${sigma}
variable       full	   equal   3*1
region         lowWall block EDGE EDGE EDGE EDGE EDGE 2

fix            topWall all wall/lj93 zhi EDGE 	       ${epsilonWall} ${sigma} ${repulsive} units box
fix            topWall all wall/lj93 zhi EDGE 	       2 ${sigma} ${repulsive} units box
fix            topWall all wall/lj93 zhi EDGE 	       2 1 ${repulsive} units box
fix            topWall all wall/lj93 zhi EDGE 	       2 1 0.7147 units box
fix            lowSol solvent wall/lj93 zlo EDGE                ${epsilonWall} ${sigma} ${full} units box
fix            lowSol solvent wall/lj93 zlo EDGE                2 ${sigma} ${full} units box
fix            lowSol solvent wall/lj93 zlo EDGE                2 1 ${full} units box
fix            lowSol solvent wall/lj93 zlo EDGE                2 1 3 units box
fix 	       lowCub cubes wall/lj93 zlo EDGE                ${epsilonWall} ${sigma} ${repulsive} units box
fix 	       lowCub cubes wall/lj93 zlo EDGE                2 ${sigma} ${repulsive} units box
fix 	       lowCub cubes wall/lj93 zlo EDGE                2 1 ${repulsive} units box
fix 	       lowCub cubes wall/lj93 zlo EDGE                2 1 0.7147 units box


###################### COMPUTES ##########################

compute        bin1 solvent chunk/atom bin/1d z lower 1.0 units box
compute        bin3 solvent chunk/atom bin/3d x lower 1.0 y lower 1.0 z lower 1.0 units box

compute 	pe solvent 	   pe/atom
compute 	pe2 all 	   pe/atom

######################  FIXES ############################


fix             peclet solvent ave/chunk 10 10 10000 bin1 density/number norm                  none ave one file density.profile

fix              temp solvent ave/chunk 10 10 10000 bin1 temp norm                  none ave one file temp.profile

fix 		 dens solvent ave/chunk 10 10 10000 bin3 density/number norm 		 none ave one file dens3.profile

fix		 temp2 solvent ave/chunk 10 10 1000 bin3 temp norm none ave one file temp3.profile

fix 		pe solvent ave/chunk 1 1 10000 bin3 c_pe norm none ave one file pe3.profile

fix             1 cubes rigid/nve/small molecule
  create bodies CPU = 0.031 seconds
  96 rigid bodies with 109728 atoms
  6.9282032 = max distance from body owner to body atom

fix             2 solvent nve# temp ${temp} ${temp} 10


## Thermostat
region          regthermo block EDGE EDGE EDGE EDGE 0 15
group           thermo dynamic solvent region regthermo every 1000
dynamic group thermo defined
fix             3 thermo langevin ${temp} ${temp} 10 156453
fix             3 thermo langevin 1.0 ${temp} 10 156453
fix             3 thermo langevin 1.0 1.0 10 156453


#### Load balancing

fix             bal all balance 1000 1.05 shift z 10 1.05

############### Diagnostics and computes ###################

compute        	com cubes          rigid/local   1 mol x y z
compute        	quat cubes         rigid/local   1 mol quatw quati quatj quatk

compute 	cc2 cubes 	   chunk/atom 	 molecule
compute 	msd cubes 	   msd/chunk 	 cc2

fix 		msd all ave/time  1 1 10000 c_msd[*] file dump.msd ave one mode vector

dump            1 all custom 500000 dump.lammpstrj id mol type x y z vx vy vz c_pe2
dump		sol  solvent custom 500000 dump.soltrj id x y z vx vy vz c_pe
dump		cubetrj cubes custom 500000 cubes.lammpstrj id mol type x y z vx vy vz
dump            com cubes local 100000 dump.*.xyz c_com[*]
dump	        xyz hull xyz 100000 cubes.xyz
dump            quat cubes      local 100000 dump.*.quat c_quat[*]
dump		order cubes 	local 100000 dump.*.order c_com[*] c_quat[*]
#dump		mol cubes molfile 10000 mol.xyz xyz


dump            2 all image 100000 image.*.png type type zoom 1.5 size 1280 720
dump_modify     2 pad 8
dump		image cubes image 100000 image_cubes.*.png type type zoom 1.5 size 1280 720
dump_modify	image pad 8
dump            3 all movie 5000 movie.avi type type zoom 1.5 size 1280 720
dump		4 cubes movie 5000 movie_cubes.avi type type size 1280 720


thermo          1000
thermo_style    custom step temp epair evdwl etotal press pe ke atoms

restart         1000000 restart.dat
timestep        0.005
timer           full
New timer settings: style=full  mode=nosync  timeout=off

run 		10000000
Per MPI rank memory allocation (min/avg/max) = 78.73 | 84.71 | 88.21 Mbytes
Step Temp E_pair E_vdwl TotEng Press PotEng KinEng Atoms 
       0    1.0098975    -2.410205    -2.410205   -1.2440573 -0.017865492    -2.410205    1.1661477   475860 
    1000    1.0052312   -2.4051531   -2.4051531   -1.2443937  0.077076273   -2.4051531    1.1607594   475860 
    2000    1.0057658   -2.4050186   -2.4050186   -1.2436419  0.078459856   -2.4050186    1.1613767   475860 
    3000    1.0066858   -2.4065746   -2.4065746   -1.2441356  0.076917657   -2.4065746     1.162439   475860 
    4000    1.0046895   -2.4044675   -2.4044675   -1.2443335  0.077521483   -2.4044675    1.1601339   475860 
    5000     1.004973   -2.4055936   -2.4055936   -1.2451323  0.076181449   -2.4055936    1.1604613   475860 
    6000    1.0041362   -2.4052993   -2.4052993   -1.2458043  0.072019754   -2.4052993    1.1594949   475860 
    7000    1.0029947   -2.4047634   -2.4047634   -1.2465866  0.069712389   -2.4047634    1.1581768   475860 
    8000    1.0038812   -2.4063639   -2.4063639   -1.2471633  0.068794561   -2.4063639    1.1592006   475860 
    9000    1.0021942   -2.4047664   -2.4047664   -1.2475139  0.071021381   -2.4047664    1.1572525   475860 
   10000    1.0016513   -2.4042433   -2.4042433   -1.2476177  0.074443758   -2.4042433    1.1566256   475860 
   11000    0.9998871   -2.4016027   -2.4016027   -1.2470142   0.06507712   -2.4016027    1.1545885   475860 
   12000    1.0001914   -2.4013793   -2.4013793   -1.2464394  0.071337764   -2.4013793    1.1549399   475860 
   13000   0.99976945   -2.4001425   -2.4001425   -1.2456899  0.068049493   -2.4001425    1.1544526   475860 
   14000   0.99967422    -2.398854    -2.398854   -1.2445113  0.068990087    -2.398854    1.1543426   475860 
   15000   0.99942919   -2.3978957   -2.3978957    -1.243836  0.072444507   -2.3978957    1.1540597   475860 
   16000   0.99887793   -2.3975876   -2.3975876   -1.2441645  0.073565044   -2.3975876    1.1534231   475860 
   17000   0.99883506   -2.3975038   -2.3975038   -1.2441301  0.065913443   -2.3975038    1.1533736   475860 
   18000   0.99818721   -2.3958606   -2.3958606    -1.243235  0.073833844   -2.3958606    1.1526256   475860 
   19000   0.99788523   -2.3952262   -2.3952262   -1.2429494   0.07108407   -2.3952262    1.1522769   475860 
   20000    0.9972616   -2.3944235   -2.3944235   -1.2428668  0.065194397   -2.3944235    1.1515567   475860 
   21000   0.99814567    -2.394312    -2.394312   -1.2417344  0.066334946    -2.394312    1.1525776   475860 
   22000   0.99893752   -2.3944931   -2.3944931   -1.2410011  0.065124779   -2.3944931     1.153492   475860 
   23000   0.99752951   -2.3924411   -2.3924411    -1.240575  0.067272165   -2.3924411    1.1518661   475860 
   24000   0.99869623   -2.3929688   -2.3929688   -1.2397555    0.0679994   -2.3929688    1.1532133   475860 
   25000   0.99826331   -2.3921677   -2.3921677   -1.2394542  0.065794077   -2.3921677    1.1527134   475860 
   26000   0.99745876   -2.3911004   -2.3911004    -1.239316  0.068045151   -2.3911004    1.1517844   475860 
   27000   0.99860918   -2.3916103   -2.3916103   -1.2384975  0.065844251   -2.3916103    1.1531128   475860 
   28000   0.99820378   -2.3907593   -2.3907593   -1.2381146  0.071542383   -2.3907593    1.1526447   475860 
   29000   0.99875375   -2.3916796   -2.3916796   -1.2383998  0.065495324   -2.3916796    1.1532798   475860 
   30000   0.99903546   -2.3912248   -2.3912248   -1.2376198  0.061409817   -2.3912248    1.1536051   475860 
   31000   0.99784123    -2.389792    -2.389792    -1.237566  0.068308206    -2.389792     1.152226   475860 
   32000    1.0007189   -2.3920397   -2.3920397   -1.2364907  0.068596195   -2.3920397     1.155549   475860 
   33000    1.0013023   -2.3924979   -2.3924979   -1.2362753  0.062553306   -2.3924979    1.1562226   475860 
   34000    1.0019284   -2.3941279   -2.3941279   -1.2371823  0.066754767   -2.3941279    1.1569456   475860 
   35000    1.0012558   -2.3927918   -2.3927918   -1.2366229   0.06579964   -2.3927918    1.1561689   475860 
   36000   0.99987864    -2.390806    -2.390806   -1.2362273  0.067889856    -2.390806    1.1545787   475860 
   37000    1.0002145   -2.3927348   -2.3927348   -1.2377683  0.069604686   -2.3927348    1.1549665   475860 
   38000    1.0001654   -2.3936974   -2.3936974   -1.2387877   0.06881924   -2.3936974    1.1549098   475860 
   39000    1.0009553    -2.394632    -2.394632   -1.2388101  0.064539995    -2.394632    1.1558219   475860 
   40000     1.001569   -2.3945626   -2.3945626    -1.238032  0.070486366   -2.3945626    1.1565305   475860 
   41000     1.000784   -2.3942405   -2.3942405   -1.2386163  0.068971036   -2.3942405    1.1556242   475860 
   42000    1.0010224   -2.3948146   -2.3948146   -1.2389152  0.065457389   -2.3948146    1.1558994   475860 
   43000    1.0006117    -2.394695    -2.394695   -1.2392698  0.063074331    -2.394695    1.1554252   475860 
   44000    1.0007815   -2.3944652   -2.3944652   -1.2388439  0.069758013   -2.3944652    1.1556213   475860 
   45000   0.99978247   -2.3941614   -2.3941614   -1.2396938  0.070227115   -2.3941614    1.1544676   475860 
   46000    1.0000384   -2.3948206   -2.3948206   -1.2400575   0.06726495   -2.3948206    1.1547631   475860 
   47000   0.99989931   -2.3950098   -2.3950098   -1.2404072  0.070881197   -2.3950098    1.1546026   475860 
   48000   0.99888638   -2.3937138   -2.3937138   -1.2402809  0.075309557   -2.3937138    1.1534329   475860 
   49000    1.0002969   -2.3948145   -2.3948145   -1.2397529  0.067473669   -2.3948145    1.1550616   475860 
   50000   0.99990612   -2.3943798   -2.3943798   -1.2397693  0.066300562   -2.3943798    1.1546104   475860 
   51000    1.0012785   -2.3965142   -2.3965142   -1.2403191  0.061882275   -2.3965142    1.1561951   475860 
   52000    1.0003676   -2.3955125   -2.3955125   -1.2403692  0.059099017   -2.3955125    1.1551433   475860 
   53000    1.0007034   -2.3958223   -2.3958223   -1.2402913  0.059683797   -2.3958223     1.155531   475860 
   54000    1.0007172   -2.3955884   -2.3955884   -1.2400414  0.065643215   -2.3955884     1.155547   475860 
   55000     1.001227   -2.3963124   -2.3963124   -1.2401768  0.066024082   -2.3963124    1.1561356   475860 
   56000    1.0029519   -2.3977804   -2.3977804    -1.239653   0.06631964   -2.3977804    1.1581275   475860 
   57000    1.0029868   -2.3977421   -2.3977421   -1.2395743  0.071852211   -2.3977421    1.1581678   475860 
   58000    1.0008668   -2.3958191   -2.3958191   -1.2400995  0.072468691   -2.3958191    1.1557197   475860 
   59000    1.0000809   -2.3946581   -2.3946581   -1.2398459  0.072225587   -2.3946581    1.1548122   475860 
   60000    1.0032424   -2.3987773   -2.3987773   -1.2403144  0.065632426   -2.3987773    1.1584629   475860 
   61000    1.0015651   -2.3968493   -2.3968493   -1.2403232   0.06831177   -2.3968493    1.1565261   475860 
   62000    1.0028137   -2.3983463   -2.3983463   -1.2403785  0.066826436   -2.3983463    1.1579678   475860 
   63000     1.002344   -2.3977892   -2.3977892   -1.2403637  0.065968991   -2.3977892    1.1574255   475860 
   64000    1.0016145   -2.3973715   -2.3973715   -1.2407884  0.071055477   -2.3973715    1.1565832   475860 
   65000    1.0014405   -2.3970965   -2.3970965   -1.2407143  0.056344524   -2.3970965    1.1563822   475860 
   66000   0.99938398   -2.3960209   -2.3960209   -1.2420134  0.062174531   -2.3960209    1.1540075   475860 
   67000    1.0023331   -2.3977473   -2.3977473   -1.2403344  0.059891171   -2.3977473    1.1574129   475860 
   68000   0.99994859   -2.3955584   -2.3955584   -1.2408989  0.074545197   -2.3955584    1.1546595   475860 
   69000      1.00129   -2.3958755   -2.3958755   -1.2396672  0.065057373   -2.3958755    1.1562084   475860 
   70000   0.99942036   -2.3951002   -2.3951002   -1.2410507  0.063115838   -2.3951002    1.1540495   475860 
   71000    1.0005918    -2.395517    -2.395517   -1.2401147  0.066075975    -2.395517    1.1554022   475860 
   72000   0.99904371   -2.3939965   -2.3939965   -1.2403819  0.068881429   -2.3939965    1.1536146   475860 
   73000    1.0016613   -2.3981059   -2.3981059   -1.2414687  0.068494753   -2.3981059    1.1566371   475860 
   74000   0.99904365   -2.3950312   -2.3950312   -1.2414167  0.071637458   -2.3950312    1.1536145   475860 
   75000    1.0000097    -2.395081    -2.395081    -1.240351  0.074715403    -2.395081      1.15473   475860 
   76000    1.0001566   -2.3944986   -2.3944986    -1.239599  0.069562517   -2.3944986    1.1548996   475860 
   77000   0.99938427   -2.3936815   -2.3936815   -1.2396737   0.07109961   -2.3936815    1.1540078   475860 
   78000   0.99883259    -2.393335    -2.393335   -1.2399642   0.06716546    -2.393335    1.1533708   475860 
   79000    1.0013554   -2.3958747   -2.3958747   -1.2395909  0.063694503   -2.3958747    1.1562839   475860 
   80000    1.0004592   -2.3944298   -2.3944298   -1.2391808  0.069882002   -2.3944298     1.155249   475860 
   81000   0.99992648    -2.393909    -2.393909   -1.2392751  0.066751911    -2.393909    1.1546339   475860 
   82000     1.001337   -2.3965072   -2.3965072   -1.2402445   0.06012221   -2.3965072    1.1562627   475860 
   83000     1.000308   -2.3957383   -2.3957383   -1.2406638  0.064029104   -2.3957383    1.1550745   475860 
   84000    1.0004022   -2.3946109   -2.3946109   -1.2394276  0.071457967   -2.3946109    1.1551833   475860 
   85000    1.0021312   -2.3964882   -2.3964882   -1.2393084  0.063796116   -2.3964882    1.1571797   475860 
   86000    1.0006956   -2.3947489   -2.3947489   -1.2392268  0.063161467   -2.3947489    1.1555221   475860 
   87000    1.0010974   -2.3948708   -2.3948708   -1.2388847  0.076566805   -2.3948708     1.155986   475860 
   88000    1.0003241    -2.394185    -2.394185   -1.2390919  0.064357226    -2.394185    1.1550931   475860 
   89000    1.0020613   -2.3957337   -2.3957337   -1.2386347  0.070390484   -2.3957337     1.157099   475860 
   90000    1.0013662   -2.3937148   -2.3937148   -1.2374184  0.069437652   -2.3937148    1.1562964   475860 
   91000    1.0005607   -2.3937239   -2.3937239   -1.2383576  0.071159105   -2.3937239    1.1553663   475860 
   92000   0.99984643   -2.3913324   -2.3913324   -1.2367909  0.068741785   -2.3913324    1.1545415   475860 
   93000    1.0014798   -2.3935832   -2.3935832   -1.2371556  0.064933493   -2.3935832    1.1564276   475860 
   94000    1.0014111   -2.3940155   -2.3940155   -1.2376673  0.064822994   -2.3940155    1.1563482   475860 
   95000    1.0021423   -2.3954307   -2.3954307   -1.2382381  0.061416064   -2.3954307    1.1571926   475860 
   96000   0.99965773   -2.3918194   -2.3918194   -1.2374958  0.070232015   -2.3918194    1.1543236   475860 
   97000    1.0007322    -2.394398    -2.394398   -1.2388336  0.062859823    -2.394398    1.1555644   475860 
   98000    1.0006107   -2.3920289   -2.3920289   -1.2366049  0.067800413   -2.3920289     1.155424   475860 
   99000    1.0019543   -2.3942969   -2.3942969   -1.2373214  0.064599998   -2.3942969    1.1569754   475860 
  100000   0.99971379   -2.3916936   -2.3916936   -1.2373053  0.067064229   -2.3916936    1.1543883   475860 
  101000    1.0003128   -2.3925002   -2.3925002   -1.2374201  0.061787521   -2.3925002    1.1550801   475860 
  102000   0.99825151   -2.3915744   -2.3915744   -1.2388746  0.063665419   -2.3915744    1.1526998   475860 
  103000     1.002107   -2.3958387   -2.3958387   -1.2386869  0.060268878   -2.3958387    1.1571518   475860 
  104000   0.99911219   -2.3928315   -2.3928315   -1.2391378  0.064394996   -2.3928315    1.1536936   475860 
  105000   0.99883504   -2.3921352   -2.3921352   -1.2387616   0.06922308   -2.3921352    1.1533736   475860 
  106000   0.99836669   -2.3921785   -2.3921785   -1.2393457  0.067926334   -2.3921785    1.1528328   475860 
  107000   0.99748316    -2.391314    -2.391314   -1.2395014  0.061590703    -2.391314    1.1518126   475860 
  108000    0.9988395   -2.3924658   -2.3924658    -1.239087   0.06823757   -2.3924658    1.1533788   475860 
  109000    1.0015814   -2.3939417   -2.3939417   -1.2373968  0.065798994   -2.3939417    1.1565449   475860 
  110000   0.99987417   -2.3910693   -2.3910693   -1.2364958   0.06396958   -2.3910693    1.1545735   475860 
  111000    1.0010075   -2.3925959   -2.3925959   -1.2367136  0.065185227   -2.3925959    1.1558822   475860 
  112000    1.0022764    -2.393426    -2.393426   -1.2360786  0.065945126    -2.393426    1.1573474   475860 
  113000    1.0023864    -2.393585    -2.393585   -1.2361106  0.076969293    -2.393585    1.1574744   475860 
  114000    1.0003093   -2.3920055   -2.3920055   -1.2369294  0.066633517   -2.3920055     1.155076   475860 
  115000   0.99946596    -2.391672    -2.391672   -1.2375698  0.067958471    -2.391672    1.1541022   475860 
  116000    0.9989553    -2.390953    -2.390953   -1.2374405  0.075246862    -2.390953    1.1535125   475860 
  117000    1.0015233    -2.393829    -2.393829   -1.2373512  0.066764308    -2.393829    1.1564778   475860 
  118000    1.0002805   -2.3920028   -2.3920028   -1.2369601  0.069941569   -2.3920028    1.1550427   475860 
  119000   0.99993215   -2.3910209   -2.3910209   -1.2363804  0.068413451   -2.3910209    1.1546405   475860 
  120000    1.0006961    -2.391301    -2.391301   -1.2357784  0.071281917    -2.391301    1.1555226   475860 
  121000    1.0018507   -2.3931632   -2.3931632   -1.2363073  0.066526862   -2.3931632    1.1568559   475860 
  122000    1.0016937   -2.3943956   -2.3943956    -1.237721  0.067205438   -2.3943956    1.1566746   475860 
  123000     1.002844   -2.3956595   -2.3956595   -1.2376567  0.066485162   -2.3956595    1.1580028   475860 
  124000    1.0001162   -2.3927998   -2.3927998   -1.2379468  0.069229903   -2.3927998     1.154853   475860 
  125000    1.0020335   -2.3941538   -2.3941538   -1.2370869  0.063448272   -2.3941538     1.157067   475860 
  126000   0.99954684   -2.3919017   -2.3919017   -1.2377062  0.074170533   -2.3919017    1.1541956   475860 
  127000    1.0016368    -2.394559    -2.394559   -1.2379501   0.06617943    -2.394559    1.1566088   475860 
  128000    1.0016696   -2.3950654   -2.3950654   -1.2384186  0.064341676   -2.3950654    1.1566468   475860 
  129000    1.0012279   -2.3925036   -2.3925036   -1.2363669  0.065533731   -2.3925036    1.1561367   475860 
  130000    1.0005512    -2.391882    -2.391882   -1.2365266  0.061021291    -2.391882    1.1553553   475860 
  131000    1.0010369      -2.3909      -2.3909   -1.2349839  0.069883703      -2.3909    1.1559161   475860 
  132000    1.0008043   -2.3916276   -2.3916276   -1.2359801  0.067947428   -2.3916276    1.1556475   475860 
  133000    1.0000403   -2.3904378   -2.3904378   -1.2356724  0.062890873   -2.3904378    1.1547654   475860 
  134000    1.0014861   -2.3916136   -2.3916136   -1.2351788  0.068408835   -2.3916136    1.1564348   475860 
  135000     1.001448   -2.3915622   -2.3915622   -1.2351714  0.069673865   -2.3915622    1.1563908   475860 
  136000    1.0011828   -2.3915954   -2.3915954   -1.2355107  0.072145519   -2.3915954    1.1560846   475860 
  137000    1.0009149   -2.3899528   -2.3899528   -1.2341775  0.070253278   -2.3899528    1.1557753   475860 
  138000   0.99972341   -2.3884501   -2.3884501   -1.2340507  0.074466512   -2.3884501    1.1543994   475860 
  139000    1.0029129    -2.390619    -2.390619   -1.2325367  0.070183561    -2.390619    1.1580824   475860 
  140000    1.0014255   -2.3891894   -2.3891894   -1.2328245  0.068258567   -2.3891894    1.1563649   475860 
  141000    1.0012523   -2.3890108   -2.3890108   -1.2328458  0.063612258   -2.3890108    1.1561649   475860 
  142000    1.0000854   -2.3888636   -2.3888636   -1.2340461   0.06083698   -2.3888636    1.1548175   475860 
  143000   0.99863121   -2.3869702   -2.3869702   -1.2338319  0.063270944   -2.3869702    1.1531383   475860 
  144000    1.0015972   -2.3900927   -2.3900927   -1.2335295  0.059789245   -2.3900927    1.1565632   475860 
  145000    1.0023617   -2.3904781   -2.3904781   -1.2330322  0.067901393   -2.3904781    1.1574459   475860 
  146000   0.99910732   -2.3876836   -2.3876836   -1.2339956  0.064925159   -2.3876836     1.153688   475860 
  147000    1.0006432    -2.388364    -2.388364   -1.2329025  0.061163051    -2.388364    1.1554615   475860 
  148000   0.99944799    -2.386775    -2.386775   -1.2326936  0.069923523    -2.386775    1.1540814   475860 
  149000    1.0025841    -2.390759    -2.390759   -1.2330563  0.070384018    -2.390759    1.1577027   475860 
  150000    1.0010379   -2.3892412   -2.3892412   -1.2333238  0.065850354   -2.3892412    1.1559173   475860 
  151000    1.0002526   -2.3865045   -2.3865045    -1.231494  0.072591001   -2.3865045    1.1550105   475860 
  152000    1.0010712   -2.3882085   -2.3882085   -1.2322528  0.065210698   -2.3882085    1.1559557   475860 
  153000    1.0018821   -2.3886628   -2.3886628   -1.2317707  0.065439778   -2.3886628    1.1568921   475860 
  154000   0.99896979   -2.3863292   -2.3863292      -1.2328  0.072027765   -2.3863292    1.1535292   475860 
  155000    1.0026527   -2.3900831   -2.3900831   -1.2323012  0.064949646   -2.3900831    1.1577819   475860 
  156000    1.0022549   -2.3897228   -2.3897228   -1.2324002  0.070271296   -2.3897228    1.1573226   475860 
  157000    1.0019163   -2.3895801   -2.3895801   -1.2326485  0.067668272   -2.3895801    1.1569316   475860 
  158000    1.0022408   -2.3906447   -2.3906447   -1.2333383  0.071465755   -2.3906447    1.1573063   475860 
  159000    1.0001714   -2.3877137   -2.3877137   -1.2327969  0.067348653   -2.3877137    1.1549168   475860 
  160000    1.0025978   -2.3906955   -2.3906955   -1.2329769  0.064749085   -2.3906955    1.1577186   475860 
  161000    1.0027552   -2.3908098   -2.3908098   -1.2329094  0.069388092   -2.3908098    1.1579003   475860 
  162000    1.0023573   -2.3906066   -2.3906066   -1.2331658  0.068832093   -2.3906066    1.1574408   475860 
  163000    1.0013856   -2.3895493   -2.3895493   -1.2332304  0.070857334   -2.3895493    1.1563189   475860 
  164000    1.0004518   -2.3891482   -2.3891482   -1.2339077  0.067543389   -2.3891482    1.1552405   475860 
  165000    1.0011231   -2.3898323   -2.3898323   -1.2338165  0.064546921   -2.3898323    1.1560157   475860 
  166000    1.0017219   -2.3904618   -2.3904618   -1.2337547  0.072082172   -2.3904618    1.1567072   475860 
  167000    1.0002475   -2.3878591   -2.3878591   -1.2328544  0.073295071   -2.3878591    1.1550047   475860 
  168000    1.0033418   -2.3918154   -2.3918154   -1.2332377  0.067876529   -2.3918154    1.1585777   475860 
  169000    1.0022516   -2.3903869   -2.3903869   -1.2330681  0.064193197   -2.3903869    1.1573188   475860 
  170000    1.0018173   -2.3909856   -2.3909856   -1.2341682  0.063538265   -2.3909856    1.1568173   475860 
  171000    1.0016953   -2.3908521   -2.3908521   -1.2341756  0.059469411   -2.3908521    1.1566764   475860 
  172000    1.0005146   -2.3901419   -2.3901419   -1.2348288  0.068977014   -2.3901419    1.1553131   475860 
  173000   0.99977058   -2.3887778   -2.3887778   -1.2343239  0.068824006   -2.3887778    1.1544539   475860 
  174000    1.0011619   -2.3887594   -2.3887594    -1.232699  0.068611615   -2.3887594    1.1560604   475860 
  175000    1.0013663   -2.3884928   -2.3884928   -1.2321963  0.067117791   -2.3884928    1.1562965   475860 
  176000   0.99990902   -2.3864275   -2.3864275   -1.2318137   0.06994537   -2.3864275    1.1546138   475860 
  177000    1.0023188   -2.3890331   -2.3890331   -1.2316367  0.066443313   -2.3890331    1.1573964   475860 
  178000    1.0040921   -2.3911343   -2.3911343   -1.2316902  0.067207489   -2.3911343    1.1594441   475860 
  179000    1.0030136    -2.390102    -2.390102   -1.2319033  0.064877651    -2.390102    1.1581987   475860 
  180000    1.0027186   -2.3894904   -2.3894904   -1.2316324  0.071184155   -2.3894904     1.157858   475860 
  181000    1.0031415    -2.388909    -2.388909   -1.2305627  0.069077347    -2.388909    1.1583463   475860 
  182000    1.0025477   -2.3886879   -2.3886879   -1.2310272  0.063726313   -2.3886879    1.1576607   475860 
  183000    1.0007049   -2.3869429   -2.3869429   -1.2314101  0.074623195   -2.3869429    1.1555328   475860 
  184000    1.0041931   -2.3898882   -2.3898882   -1.2303276  0.072670333   -2.3898882    1.1595607   475860 
  185000    1.0021687   -2.3872853   -2.3872853   -1.2300622  0.070488171   -2.3872853    1.1572231   475860 
  186000    1.0027437    -2.387466    -2.387466    -1.229579  0.072749799    -2.387466     1.157887   475860 
  187000    1.0038133   -2.3885205   -2.3885205   -1.2293984  0.065089524   -2.3885205    1.1591221   475860 
  188000    1.0034327   -2.3877289   -2.3877289   -1.2290463  0.070871699   -2.3877289    1.1586826   475860 
  189000    1.0026687   -2.3875331   -2.3875331   -1.2297326  0.076022663   -2.3875331    1.1578005   475860 
  190000    1.0017761   -2.3881193   -2.3881193   -1.2313495   0.06707977   -2.3881193    1.1567698   475860 
  191000     1.001471   -2.3880681   -2.3880681   -1.2316507  0.072639545   -2.3880681    1.1564174   475860 
  192000    1.0018057   -2.3881005   -2.3881005   -1.2312966  0.068840878   -2.3881005     1.156804   475860 
  193000    1.0028976   -2.3904475   -2.3904475   -1.2323827  0.068652294   -2.3904475    1.1580647   475860 
  194000    1.0030177   -2.3905046   -2.3905046   -1.2323012  0.068357464   -2.3905046    1.1582034   475860 
  195000    1.0018038   -2.3884794   -2.3884794   -1.2316777  0.064564729   -2.3884794    1.1568017   475860 
  196000    1.0010667   -2.3879311   -2.3879311   -1.2319806  0.069068994   -2.3879311    1.1559505   475860 
  197000    1.0014487   -2.3877118   -2.3877118   -1.2313202  0.062590182   -2.3877118    1.1563916   475860 
  198000    1.0025795   -2.3891226   -2.3891226   -1.2314252  0.064815896   -2.3891226    1.1576974   475860 
  199000    1.0022804   -2.3881484   -2.3881484   -1.2307963  0.069696033   -2.3881484    1.1573521   475860 
  200000    1.0013805   -2.3869773   -2.3869773   -1.2306644  0.064337904   -2.3869773    1.1563129   475860 
  201000    1.0013948   -2.3869299   -2.3869299   -1.2306004  0.062984807   -2.3869299    1.1563295   475860 
  202000    1.0012264   -2.3866534   -2.3866534   -1.2305185  0.072846118   -2.3866534    1.1561349   475860 
  203000    1.0011467   -2.3866899   -2.3866899    -1.230647   0.06689501   -2.3866899    1.1560429   475860 
  204000    1.0022805   -2.3871966   -2.3871966   -1.2298445  0.069700743   -2.3871966    1.1573521   475860 
  205000    1.0025778    -2.388042    -2.388042   -1.2303465  0.062888335    -2.388042    1.1576954   475860 
  206000    1.0019311   -2.3870074   -2.3870074   -1.2300586   0.06948591   -2.3870074    1.1569488   475860 
  207000    1.0015397    -2.387727    -2.387727   -1.2312302  0.068302859    -2.387727    1.1564968   475860 
  208000    1.0022561   -2.3891031   -2.3891031   -1.2317791  0.071471263   -2.3891031     1.157324   475860 
  209000    1.0018254   -2.3871511   -2.3871511   -1.2303244  0.067517039   -2.3871511    1.1568267   475860 
  210000    1.0039987   -2.3898719   -2.3898719   -1.2305358  0.063286895   -2.3898719    1.1593362   475860 
  211000    1.0049128    -2.390295    -2.390295   -1.2299033  0.061954909    -2.390295    1.1603917   475860 
  212000    1.0016525   -2.3865714   -2.3865714   -1.2299445  0.065065145   -2.3865714     1.156627   475860 
  213000    1.0029705    -2.388654    -2.388654   -1.2305051  0.063644342    -2.388654    1.1581489   475860 
  214000    1.0031385   -2.3886313   -2.3886313   -1.2302885  0.066191176   -2.3886313    1.1583429   475860 
  215000    1.0019662   -2.3875788   -2.3875788   -1.2305896  0.070170815   -2.3875788    1.1569892   475860 
  216000    1.0045991   -2.3896972   -2.3896972   -1.2296677  0.065848312   -2.3896972    1.1600295   475860 
  217000    1.0043198   -2.3903107   -2.3903107   -1.2306037  0.065929047   -2.3903107     1.159707   475860 
  218000     1.003717   -2.3897555   -2.3897555   -1.2307446  0.059453315   -2.3897555    1.1590109   475860 
  219000    1.0023198   -2.3880548   -2.3880548   -1.2306573  0.066068017   -2.3880548    1.1573975   475860 
  220000    1.0025255   -2.3887871   -2.3887871    -1.231152  0.067939442   -2.3887871     1.157635   475860 
  221000     1.000365   -2.3866859   -2.3866859   -1.2315455   0.06117695   -2.3866859    1.1551403   475860 
  222000    1.0007789   -2.3869482   -2.3869482     -1.23133  0.066167514   -2.3869482    1.1556182   475860 
  223000    1.0010546   -2.3877724   -2.3877724   -1.2318359  0.072324191   -2.3877724    1.1559366   475860 
  224000    1.0017226   -2.3872569   -2.3872569    -1.230549  0.068211772   -2.3872569    1.1567079   475860 
  225000    1.0028127   -2.3894215   -2.3894215   -1.2314548  0.069638329   -2.3894215    1.1579667   475860 
  226000     1.002926     -2.38812     -2.38812   -1.2300224  0.072367568     -2.38812    1.1580975   475860 
  227000    1.0014423   -2.3873415   -2.3873415   -1.2309573  0.066399937   -2.3873415    1.1563842   475860 
  228000    1.0019058   -2.3870505   -2.3870505    -1.230131  0.062956446   -2.3870505    1.1569195   475860 
  229000     1.000773    -2.385307    -2.385307   -1.2296955  0.071755349    -2.385307    1.1556115   475860 
  230000    1.0015567   -2.3866267   -2.3866267   -1.2301104  0.066475471   -2.3866267    1.1565164   475860 
  231000    1.0033045   -2.3888433   -2.3888433   -1.2303088  0.065805538   -2.3888433    1.1585345   475860 
  232000     1.001405   -2.3861102   -2.3861102    -1.229769  0.063999212   -2.3861102    1.1563412   475860 
  233000    1.0018768   -2.3869741   -2.3869741   -1.2300881  0.067612285   -2.3869741     1.156886   475860 
  234000    1.0030861   -2.3874731   -2.3874731   -1.2291907  0.063267662   -2.3874731    1.1582824   475860 
  235000    1.0023837   -2.3871548   -2.3871548   -1.2296834  0.067174272   -2.3871548    1.1574714   475860 
  236000    1.0021808   -2.3867962   -2.3867962   -1.2295592  0.065373918   -2.3867962     1.157237   475860 
  237000    1.0008192   -2.3850119   -2.3850119   -1.2293471  0.069269435   -2.3850119    1.1556648   475860 
  238000    1.0006312    -2.384773    -2.384773   -1.2293253   0.05838498    -2.384773    1.1554477   475860 
  239000    1.0022459   -2.3868551   -2.3868551   -1.2295428   0.06582694   -2.3868551    1.1573122   475860 
  240000    1.0031078   -2.3877877   -2.3877877   -1.2294802  0.065817002   -2.3877877    1.1583075   475860 
  241000    1.0029564   -2.3872105   -2.3872105   -1.2290779   0.06270523   -2.3872105    1.1581327   475860 
  242000    1.0027625    -2.387251    -2.387251   -1.2293423  0.067576023    -2.387251    1.1579087   475860 
  243000    1.0043087    -2.389447    -2.389447   -1.2297529  0.067507753    -2.389447    1.1596941   475860 
  244000    1.0046918   -2.3889331   -2.3889331   -1.2287966  0.071597307   -2.3889331    1.1601365   475860 
  245000    1.0012376   -2.3855933   -2.3855933   -1.2294454  0.071060535   -2.3855933    1.1561479   475860 
  246000    1.0032756   -2.3881194   -2.3881194   -1.2296182  0.063952053   -2.3881194    1.1585012   475860 
  247000    1.0023165   -2.3878546   -2.3878546   -1.2304608  0.065976163   -2.3878546    1.1573937   475860 
  248000    1.0017444   -2.3867394   -2.3867394   -1.2300063  0.068395716   -2.3867394    1.1567331   475860 
  249000    1.0010943   -2.3862154   -2.3862154   -1.2302331   0.07112953   -2.3862154    1.1559824   475860 
  250000    1.0027322   -2.3871236   -2.3871236   -1.2292499  0.070030428   -2.3871236    1.1578737   475860 
  251000    1.0033186   -2.3878782   -2.3878782   -1.2293273  0.071415395   -2.3878782    1.1585509   475860 
  252000    1.0034416   -2.3894802   -2.3894802   -1.2307873    0.0653286   -2.3894802    1.1586929   475860 
  253000    1.0027465   -2.3877267   -2.3877267   -1.2298364  0.072078124   -2.3877267    1.1578903   475860 
  254000     1.002337   -2.3873373   -2.3873373     -1.22992  0.065311969   -2.3873373    1.1574174   475860 
  255000    1.0009124   -2.3857799   -2.3857799   -1.2300076   0.06568277   -2.3857799    1.1557723   475860 
  256000    1.0041377   -2.3878004   -2.3878004   -1.2283037   0.06486007   -2.3878004    1.1594967   475860 
  257000    1.0040092   -2.3879415   -2.3879415   -1.2285932  0.070662027   -2.3879415    1.1593483   475860 
  258000    1.0036172   -2.3876411   -2.3876411   -1.2287455  0.067134381   -2.3876411    1.1588956   475860 
  259000    1.0039157   -2.3889678   -2.3889678   -1.2297274  0.070669035   -2.3889678    1.1592404   475860 
  260000    1.0030311   -2.3881926   -2.3881926   -1.2299738  0.069173386   -2.3881926    1.1582188   475860 
  261000    1.0038649   -2.3885076   -2.3885076   -1.2293259  0.064792625   -2.3885076    1.1591817   475860 
  262000    1.0044809   -2.3899982   -2.3899982   -1.2301053  0.070320876   -2.3899982     1.159893   475860 
  263000    1.0033233   -2.3887298   -2.3887298   -1.2301735  0.071414739   -2.3887298    1.1585563   475860 
  264000    1.0019485   -2.3871803   -2.3871803   -1.2302115  0.066335095   -2.3871803    1.1569688   475860 
  265000    1.0036339   -2.3879238   -2.3879238   -1.2290088  0.069614161   -2.3879238     1.158915   475860 
  266000    1.0045542   -2.3892126   -2.3892126    -1.229235  0.068963231   -2.3892126    1.1599777   475860 
  267000    1.0033973   -2.3875672   -2.3875672   -1.2289255  0.074909493   -2.3875672    1.1586417   475860 
  268000    1.0034066    -2.388768    -2.388768   -1.2301155  0.073056604    -2.388768    1.1586525   475860 
  269000    1.0038362   -2.3884075   -2.3884075    -1.229259  0.069834748   -2.3884075    1.1591485   475860 
  270000    1.0031635   -2.3881203   -2.3881203   -1.2297485  0.067500168   -2.3881203    1.1583718   475860 
  271000    1.0038428   -2.3883391   -2.3883391   -1.2291829   0.06608695   -2.3883391    1.1591561   475860 
  272000    1.0027418   -2.3874517   -2.3874517   -1.2295669  0.068221581   -2.3874517    1.1578848   475860 
  273000    1.0016236   -2.3884209   -2.3884209   -1.2318272   0.06461789   -2.3884209    1.1565937   475860 
  274000    1.0028913   -2.3895448   -2.3895448   -1.2314873  0.061158117   -2.3895448    1.1580575   475860 
  275000    1.0013479   -2.3870098   -2.3870098   -1.2307345  0.071002998   -2.3870098    1.1562753   475860 
  276000    1.0026465   -2.3889532   -2.3889532   -1.2311784  0.067178897   -2.3889532    1.1577747   475860 
  277000    1.0029285   -2.3884025   -2.3884025   -1.2303022  0.065325131   -2.3884025    1.1581004   475860 
  278000    1.0033901   -2.3884842   -2.3884842   -1.2298507  0.073769017   -2.3884842    1.1586335   475860 
  279000     1.002694   -2.3878781   -2.3878781   -1.2300484  0.068739233   -2.3878781    1.1578296   475860 
  280000    1.0040372   -2.3896937   -2.3896937    -1.230313  0.072769644   -2.3896937    1.1593807   475860 
  281000     1.004961   -2.3892335   -2.3892335    -1.228786  0.065660524   -2.3892335    1.1604474   475860 
  282000    1.0047693   -2.3889738   -2.3889738   -1.2287478  0.072036254   -2.3889738     1.160226   475860 
  283000    1.0024743   -2.3866224   -2.3866224   -1.2290464  0.066207689   -2.3866224     1.157576   475860 
  284000    1.0021603   -2.3872815   -2.3872815   -1.2300682  0.072616757   -2.3872815    1.1572133   475860 
  285000    1.0023037   -2.3865955   -2.3865955   -1.2292166  0.069262237   -2.3865955    1.1573789   475860 
  286000    1.0019672   -2.3867531   -2.3867531   -1.2297628  0.063327933   -2.3867531    1.1569904   475860 
  287000    1.0033084   -2.3875364   -2.3875364   -1.2289973   0.06206685   -2.3875364    1.1585391   475860 
  288000    1.0016938   -2.3861345   -2.3861345   -1.2294598   0.07103218   -2.3861345    1.1566747   475860 
  289000    1.0014031   -2.3857442   -2.3857442   -1.2294053  0.066798526   -2.3857442     1.156339   475860 
  290000    1.0002341    -2.385008    -2.385008   -1.2300189  0.060568193    -2.385008    1.1549892   475860 
  291000    1.0002306   -2.3867419   -2.3867419   -1.2317568  0.070067448   -2.3867419    1.1549851   475860 
  292000    1.0021063   -2.3883987   -2.3883987   -1.2312478  0.066734479   -2.3883987     1.157151   475860 
  293000    1.0030113   -2.3889005   -2.3889005   -1.2307044  0.067017509   -2.3889005    1.1581961   475860 
  294000    1.0006011   -2.3865558   -2.3865558   -1.2311428  0.071069654   -2.3865558    1.1554129   475860 
  295000    1.0006385   -2.3863138   -2.3863138   -1.2308577   0.06604709   -2.3863138    1.1554561   475860 
  296000    1.0040329   -2.3882478   -2.3882478   -1.2288721  0.057367979   -2.3882478    1.1593757   475860 
  297000    1.0038951   -2.3877028   -2.3877028   -1.2284863  0.068078337   -2.3877028    1.1592165   475860 
  298000    1.0034002   -2.3885257   -2.3885257   -1.2298807  0.069640445   -2.3885257     1.158645   475860 
  299000    1.0032659   -2.3880759   -2.3880759   -1.2295859  0.068952107   -2.3880759      1.15849   475860 
  300000    1.0046543   -2.3890751   -2.3890751   -1.2289819  0.065198839   -2.3890751    1.1600933   475860 
  301000    1.0047765   -2.3889719   -2.3889719   -1.2287376  0.066668755   -2.3889719    1.1602343   475860 
  302000    1.0028956   -2.3861625   -2.3861625      -1.2281  0.067827221   -2.3861625    1.1580624   475860 
  303000    1.0034118   -2.3863959   -2.3863959   -1.2277375  0.067727283   -2.3863959    1.1586585   475860 
  304000    1.0058886   -2.3887602   -2.3887602   -1.2272416  0.060026257   -2.3887602    1.1615186   475860 
  305000    1.0026369   -2.3847463   -2.3847463   -1.2269827  0.070350875   -2.3847463    1.1577637   475860 
  306000     1.003753   -2.3862794   -2.3862794   -1.2272269   0.06630718   -2.3862794    1.1590525   475860 
  307000    1.0039193   -2.3870723   -2.3870723   -1.2278277  0.071219377   -2.3870723    1.1592446   475860 
  308000    1.0035036   -2.3866014   -2.3866014   -1.2278369  0.067918545   -2.3866014    1.1587645   475860 
  309000    1.0038162   -2.3876007   -2.3876007   -1.2284752  0.060980885   -2.3876007    1.1591255   475860 
  310000    1.0011607   -2.3843966   -2.3843966   -1.2283376  0.065373705   -2.3843966    1.1560591   475860 
  311000    1.0039808   -2.3878468   -2.3878468   -1.2285313  0.067010708   -2.3878468    1.1593155   475860 
  312000     1.003383   -2.3877173   -2.3877173   -1.2290921  0.069805689   -2.3877173    1.1586252   475860 
  313000    1.0021735   -2.3858228   -2.3858228   -1.2285942  0.066992049   -2.3858228    1.1572286   475860 
  314000    1.0001945   -2.3838644   -2.3838644   -1.2289209   0.06556033   -2.3838644    1.1549434   475860 
  315000     1.002279   -2.3861864   -2.3861864    -1.228836  0.065898192   -2.3861864    1.1573504   475860 
  316000    1.0022191   -2.3852372   -2.3852372   -1.2279559  0.070232575   -2.3852372    1.1572813   475860 
  317000    1.0033227   -2.3865253   -2.3865253   -1.2279697  0.061245364   -2.3865253    1.1585556   475860 
  318000     1.002654    -2.386015    -2.386015   -1.2282316  0.062087857    -2.386015    1.1577834   475860 
  319000    1.0021776   -2.3863145   -2.3863145   -1.2290812  0.061475547   -2.3863145    1.1572333   475860 
  320000    1.0012694   -2.3849381   -2.3849381   -1.2287535  0.067216177   -2.3849381    1.1561846   475860 
  321000   0.99997547   -2.3826308   -2.3826308   -1.2279403  0.059809745   -2.3826308    1.1546905   475860 
  322000   0.99946448   -2.3833987   -2.3833987   -1.2292983  0.061807005   -2.3833987    1.1541005   475860 
  323000    1.0002206   -2.3838185   -2.3838185   -1.2288449  0.065549726   -2.3838185    1.1549736   475860 
  324000    1.0006647    -2.384488    -2.384488   -1.2290017  0.068264427    -2.384488    1.1554863   475860 
  325000    1.0013992   -2.3852026   -2.3852026   -1.2288681  0.069393966   -2.3852026    1.1563345   475860 
  326000    1.0009181   -2.3839169   -2.3839169   -1.2281379  0.066419836   -2.3839169     1.155779   475860 
  327000    1.0024577   -2.3855303   -2.3855303   -1.2279736  0.064633297   -2.3855303    1.1575567   475860 
  328000    1.0027403   -2.3852979   -2.3852979   -1.2274148  0.071575127   -2.3852979    1.1578831   475860 
  329000    1.0026589   -2.3852919   -2.3852919   -1.2275028  0.071200489   -2.3852919    1.1577891   475860 
  330000    1.0030615   -2.3860853   -2.3860853   -1.2278313  0.070841919   -2.3860853     1.158254   475860 
  331000    1.0038384   -2.3863449   -2.3863449   -1.2271937  0.067557954   -2.3863449    1.1591511   475860 
  332000    1.0031885   -2.3861169   -2.3861169   -1.2277162   0.06955521   -2.3861169    1.1584007   475860 
  333000    1.0050748   -2.3874885   -2.3874885   -1.2269097  0.067337109   -2.3874885    1.1605788   475860 
  334000    1.0031793   -2.3860815   -2.3860815   -1.2276915  0.068868629   -2.3860815    1.1583901   475860 
  335000    1.0047779   -2.3878784   -2.3878784   -1.2276425   0.05957139   -2.3878784    1.1602359   475860 
  336000    1.0037398   -2.3881553   -2.3881553    -1.229118  0.068780579   -2.3881553    1.1590373   475860 
  337000    1.0043745   -2.3879994   -2.3879994   -1.2282293  0.064619073   -2.3879994    1.1597702   475860 
  338000    1.0027518   -2.3862065   -2.3862065   -1.2283101   0.06144734   -2.3862065    1.1578964   475860 
  339000    1.0033437   -2.3869001   -2.3869001   -1.2283203  0.067141058   -2.3869001    1.1585799   475860 
  340000     1.002135   -2.3848028   -2.3848028   -1.2276187  0.072369697   -2.3848028    1.1571841   475860 
  341000    1.0039735   -2.3875109   -2.3875109   -1.2282038    0.0733866   -2.3875109    1.1593071   475860 
  342000     1.002885   -2.3874953   -2.3874953   -1.2294452  0.075702289   -2.3874953    1.1580501   475860 
  343000    1.0024641   -2.3873852   -2.3873852    -1.229821   0.06756254   -2.3873852    1.1575642   475860 
  344000     1.002208   -2.3873745   -2.3873745   -1.2301061  0.065603636   -2.3873745    1.1572684   475860 
  345000    1.0012972   -2.3860514   -2.3860514   -1.2298347  0.068274507   -2.3860514    1.1562167   475860 
  346000     1.002086   -2.3870355   -2.3870355    -1.229908  0.064866869   -2.3870355    1.1571275   475860 
  347000    1.0028447   -2.3871351   -2.3871351   -1.2291314  0.068975777   -2.3871351    1.1580037   475860 
  348000    1.0041577   -2.3892629   -2.3892629   -1.2297431  0.060776583   -2.3892629    1.1595198   475860 
  349000     1.003158   -2.3879563   -2.3879563   -1.2295909  0.067438242   -2.3879563    1.1583654   475860 
  350000    1.0024541    -2.386942    -2.386942   -1.2293894  0.072278965    -2.386942    1.1575526   475860 
  351000     1.002283   -2.3858577   -2.3858577   -1.2285027  0.068218151   -2.3858577    1.1573551   475860 
  352000     1.004427   -2.3878528   -2.3878528   -1.2280219  0.072786505   -2.3878528    1.1598308   475860 
  353000    1.0028795   -2.3873741   -2.3873741   -1.2293303  0.064556788   -2.3873741    1.1580438   475860 
  354000    1.0005067   -2.3856325   -2.3856325   -1.2303285  0.067211019   -2.3856325     1.155304   475860 
  355000    1.0032385   -2.3880441   -2.3880441   -1.2295857  0.064892373   -2.3880441    1.1584584   475860 
  356000    1.0017394   -2.3852757   -2.3852757   -1.2285484  0.066829656   -2.3852757    1.1567273   475860 
  357000     1.001528   -2.3852883   -2.3852883    -1.228805    0.0629915   -2.3852883    1.1564833   475860 
  358000     1.001233   -2.3851867   -2.3851867   -1.2290441   0.06867383   -2.3851867    1.1561426   475860 
  359000    1.0021761   -2.3855052   -2.3855052   -1.2282736   0.06372059   -2.3855052    1.1572316   475860 
  360000    1.0036027   -2.3878345   -2.3878345   -1.2289556  0.065389334   -2.3878345    1.1588789   475860 
  361000    1.0024381    -2.386328    -2.386328   -1.2287938  0.065316792    -2.386328    1.1575342   475860 
  362000    1.0041106   -2.3876955   -2.3876955   -1.2282301  0.066555651   -2.3876955    1.1594655   475860 
  363000    1.0027527   -2.3858297   -2.3858297   -1.2279322  0.069399119   -2.3858297    1.1578975   475860 
  364000    1.0035483   -2.3856642   -2.3856642   -1.2268481  0.064188096   -2.3856642    1.1588161   475860 
  365000    1.0032175   -2.3867634   -2.3867634   -1.2283292  0.068212569   -2.3867634    1.1584341   475860 
  366000    1.0030941   -2.3857004   -2.3857004   -1.2274087  0.069548426   -2.3857004    1.1582917   475860 
  367000    1.0041901   -2.3870322   -2.3870322    -1.227475  0.066773757   -2.3870322    1.1595572   475860 
  368000    1.0034808   -2.3862153   -2.3862153   -1.2274772  0.072154571   -2.3862153    1.1587381   475860 
  369000    1.0029276   -2.3869581   -2.3869581   -1.2288588  0.071429857   -2.3869581    1.1580993   475860 
  370000    1.0022638   -2.3866304   -2.3866304   -1.2292975   0.06738543   -2.3866304    1.1573329   475860 
  371000    1.0020456   -2.3863136   -2.3863136   -1.2292327  0.067432244   -2.3863136    1.1570809   475860 
  372000    1.0021955   -2.3866394   -2.3866394   -1.2293855  0.060025837   -2.3866394     1.157254   475860 
  373000    1.0010755   -2.3849929   -2.3849929   -1.2290322  0.064238838   -2.3849929    1.1559607   475860 
  374000    1.0020957   -2.3857746   -2.3857746   -1.2286358  0.062452854   -2.3857746    1.1571388   475860 
  375000    1.0019387   -2.3854704   -2.3854704    -1.228513  0.068957479   -2.3854704    1.1569574   475860 
  376000    1.0012837   -2.3843005   -2.3843005   -1.2280994    0.0678443   -2.3843005    1.1562012   475860 
  377000    1.0021075   -2.3863302   -2.3863302   -1.2291778  0.065662665   -2.3863302    1.1571524   475860 
  378000    1.0019013   -2.3850648   -2.3850648   -1.2281505  0.064305297   -2.3850648    1.1569143   475860 
  379000    1.0020095   -2.3849482   -2.3849482   -1.2279089  0.070976355   -2.3849482    1.1570393   475860 
  380000    1.0036899   -2.3863324   -2.3863324   -1.2273528  0.064296877   -2.3863324    1.1589796   475860 
  381000    1.0038135   -2.3855867   -2.3855867   -1.2264644  0.065919568   -2.3855867    1.1591223   475860 
  382000    1.0026275   -2.3836794   -2.3836794   -1.2259266  0.074174279   -2.3836794    1.1577529   475860 
  383000    1.0020104   -2.3845288   -2.3845288   -1.2274885  0.069236669   -2.3845288    1.1570403   475860 
  384000     1.002258   -2.3843908   -2.3843908   -1.2270646  0.060043137   -2.3843908    1.1573262   475860 
  385000    1.0022327   -2.3842368   -2.3842368   -1.2269399  0.062248909   -2.3842368     1.157297   475860 
  386000    1.0009826   -2.3818833   -2.3818833   -1.2260299  0.063028704   -2.3818833    1.1558534   475860 
  387000    1.0040209   -2.3839638   -2.3839638    -1.224602  0.071054704   -2.3839638    1.1593618   475860 
  388000       1.0016   -2.3833185   -2.3833185   -1.2267521  0.066432123   -2.3833185    1.1565664   475860 
  389000    1.0020676   -2.3838311   -2.3838311   -1.2267248    0.0593007   -2.3838311    1.1571063   475860 
  390000    1.0038719   -2.3866356   -2.3866356   -1.2274459  0.066606361   -2.3866356    1.1591897   475860 
  391000    1.0038011   -2.3864804   -2.3864804   -1.2273724  0.063458583   -2.3864804     1.159108   475860 
  392000    1.0010392   -2.3836698   -2.3836698   -1.2277509  0.064153021   -2.3836698    1.1559188   475860 
  393000    1.0032659   -2.3861068   -2.3861068   -1.2276168  0.068523311   -2.3861068      1.15849   475860 
  394000    1.0036322   -2.3866997   -2.3866997   -1.2277868  0.068499129   -2.3866997     1.158913   475860 
  395000    1.0033777   -2.3861947   -2.3861947   -1.2275756  0.073643237   -2.3861947    1.1586191   475860 
  396000    1.0041776   -2.3866134   -2.3866134   -1.2270706   0.06818669   -2.3866134    1.1595427   475860 
  397000    1.0033469   -2.3870996   -2.3870996   -1.2285161  0.068026522   -2.3870996    1.1585836   475860 
  398000    1.0048551   -2.3876801   -2.3876801    -1.227355  0.065561308   -2.3876801    1.1603251   475860 
  399000    1.0070587   -2.3888681   -2.3888681   -1.2259984  0.069563655   -2.3888681    1.1628697   475860 
  400000    1.0044869   -2.3879359   -2.3879359    -1.228036  0.064056518   -2.3879359    1.1598999   475860 
  401000    1.0041286   -2.3880247   -2.3880247   -1.2285385  0.069165134   -2.3880247    1.1594862   475860 
  402000    1.0033135    -2.387578    -2.387578    -1.229033  0.071189112    -2.387578     1.158545   475860 
  403000    1.0053521   -2.3890682   -2.3890682   -1.2281692  0.071152358   -2.3890682     1.160899   475860 
  404000    1.0046381    -2.388219    -2.388219   -1.2281445  0.068143867    -2.388219    1.1600746   475860 
  405000    1.0039753   -2.3877609   -2.3877609   -1.2284518  0.071146939   -2.3877609    1.1593091   475860 
  406000    1.0010652   -2.3863756   -2.3863756   -1.2304267  0.065573856   -2.3863756    1.1559489   475860 
  407000     1.002532    -2.388403    -2.388403   -1.2307603  0.068869845    -2.388403    1.1576426   475860 
  408000    1.0010382   -2.3875516   -2.3875516    -1.231634   0.06029244   -2.3875516    1.1559177   475860 
  409000    1.0006375   -2.3865909   -2.3865909    -1.231136  0.072926064   -2.3865909    1.1554549   475860 
  410000    1.0032286   -2.3893619   -2.3893619    -1.230915  0.068795136   -2.3893619    1.1584469   475860 
  411000    1.0022838    -2.388046    -2.388046     -1.23069  0.072486377    -2.388046     1.157356   475860 
  412000    1.0022901   -2.3871501   -2.3871501   -1.2297868  0.062827558   -2.3871501    1.1573632   475860 
  413000    1.0045836   -2.3888005   -2.3888005   -1.2287889  0.062729186   -2.3888005    1.1600116   475860 
  414000    1.0049373   -2.3885355   -2.3885355   -1.2281155  0.070226538   -2.3885355      1.16042   475860 
  415000    1.0049586   -2.3893542   -2.3893542   -1.2289096  0.062609416   -2.3893542    1.1604446   475860 
  416000    1.0032991   -2.3874389   -2.3874389   -1.2289105  0.066644014   -2.3874389    1.1585284   475860 
  417000    1.0034413   -2.3871233   -2.3871233   -1.2284308  0.074796093   -2.3871233    1.1586926   475860 
  418000    1.0044121   -2.3888976   -2.3888976   -1.2290841  0.068505584   -2.3888976    1.1598135   475860 
  419000     1.003923   -2.3881689   -2.3881689   -1.2289201  0.061601718   -2.3881689    1.1592488   475860 
  420000    1.0022748   -2.3864088   -2.3864088   -1.2290633  0.069075231   -2.3864088    1.1573456   475860 
  421000    1.0026693   -2.3871416   -2.3871416   -1.2293406  0.065051879   -2.3871416    1.1578011   475860 
  422000    1.0027485   -2.3867551   -2.3867551   -1.2288625  0.063351889   -2.3867551    1.1578926   475860 
  423000    1.0025301   -2.3859878   -2.3859878   -1.2283474  0.064496694   -2.3859878    1.1576404   475860 
  424000    1.0042456   -2.3874301   -2.3874301   -1.2278088  0.067015126   -2.3874301    1.1596213   475860 
  425000    1.0034067   -2.3858387   -2.3858387    -1.227186  0.065200033   -2.3858387    1.1586526   475860 
  426000    1.0053279   -2.3881138   -2.3881138   -1.2272427  0.067022665   -2.3881138    1.1608711   475860 
  427000    1.0051179   -2.3878612   -2.3878612   -1.2272326  0.068622068   -2.3878612    1.1606285   475860 
  428000    1.0041751   -2.3867388   -2.3867388   -1.2271989  0.069957356   -2.3867388    1.1595399   475860 
  429000    1.0037676   -2.3871357   -2.3871357   -1.2280664  0.068537256   -2.3871357    1.1590693   475860 
  430000    1.0048857   -2.3871243   -2.3871243   -1.2267638  0.072329261   -2.3871243    1.1603605   475860 
  431000    1.0055778   -2.3882347   -2.3882347   -1.2270751  0.074789729   -2.3882347    1.1611596   475860 
  432000    1.0053706   -2.3889734   -2.3889734    -1.228053  0.069824746   -2.3889734    1.1609204   475860 
  433000    1.0041014   -2.3864362   -2.3864362   -1.2269815  0.067654809   -2.3864362    1.1594548   475860 
  434000    1.0039398   -2.3871929   -2.3871929   -1.2279246  0.065725288   -2.3871929    1.1592682   475860 
  435000    1.0038508   -2.3866003   -2.3866003    -1.227435  0.065253141   -2.3866003    1.1591654   475860 
  436000    1.0017796   -2.3839646   -2.3839646   -1.2271908  0.071623262   -2.3839646    1.1567737   475860 
  437000    1.0037919   -2.3865275   -2.3865275   -1.2274301   0.06601638   -2.3865275    1.1590974   475860 
  438000    1.0036136   -2.3860313   -2.3860313   -1.2271398  0.071431792   -2.3860313    1.1588915   475860 
  439000     1.004416   -2.3880524   -2.3880524   -1.2282343  0.066149161   -2.3880524    1.1598181   475860 
  440000    1.0011176   -2.3848873   -2.3848873    -1.228878  0.062999016   -2.3848873    1.1560093   475860 
  441000    1.0019159   -2.3854669   -2.3854669   -1.2285357  0.072300715   -2.3854669    1.1569312   475860 
  442000    1.0024958   -2.3864715   -2.3864715   -1.2288708  0.063135656   -2.3864715    1.1576007   475860 
  443000    1.0008045   -2.3849695   -2.3849695   -1.2293217  0.065851905   -2.3849695    1.1556478   475860 
  444000    1.0038163   -2.3883681   -2.3883681   -1.2292425  0.070803682   -2.3883681    1.1591256   475860 
  445000    1.0034903   -2.3886425   -2.3886425   -1.2298934  0.063392043   -2.3886425    1.1587491   475860 
  446000    1.0034477    -2.387885    -2.387885   -1.2291851  0.073610738    -2.387885    1.1586999   475860 
  447000     1.003352   -2.3868544   -2.3868544   -1.2282649  0.070795124   -2.3868544    1.1585895   475860 
  448000    1.0022477    -2.386168    -2.386168   -1.2288537  0.070349287    -2.386168    1.1573143   475860 
  449000    1.0036629   -2.3880437   -2.3880437   -1.2290952  0.067278122   -2.3880437    1.1589485   475860 
  450000    1.0033039   -2.3870743   -2.3870743   -1.2285404  0.070955514   -2.3870743    1.1585339   475860 
  451000     1.005318   -2.3881308   -2.3881308   -1.2272712  0.070854718   -2.3881308    1.1608596   475860 
  452000    1.0050352    -2.387748    -2.387748   -1.2272149  0.065164173    -2.387748    1.1605331   475860 
  453000    1.0031025   -2.3845753   -2.3845753    -1.226274  0.071856499   -2.3845753    1.1583014   475860 
  454000    1.0034719   -2.3862705   -2.3862705   -1.2275427  0.065726591   -2.3862705    1.1587279   475860 
  455000    1.0050183   -2.3867129   -2.3867129   -1.2261993  0.065833233   -2.3867129    1.1605136   475860 
  456000    1.0056809   -2.3873429   -2.3873429   -1.2260642  0.074024906   -2.3873429    1.1612787   475860 
  457000    1.0033157   -2.3841205   -2.3841205    -1.225573  0.062752058   -2.3841205    1.1585476   475860 
  458000    1.0023291   -2.3827463   -2.3827463    -1.225338  0.069483492   -2.3827463    1.1574083   475860 
  459000    1.0026795   -2.3838162   -2.3838162   -1.2260033  0.075962574   -2.3838162    1.1578129   475860 
  460000    1.0060143   -2.3869101   -2.3869101   -1.2252465  0.065652311   -2.3869101    1.1616636   475860 
  461000    1.0043499   -2.3861061   -2.3861061   -1.2263643  0.067773692   -2.3861061    1.1597418   475860 
  462000    1.0043083   -2.3852148   -2.3852148    -1.225521  0.072849562   -2.3852148    1.1596937   475860 
  463000    1.0061759   -2.3880215   -2.3880215   -1.2261712  0.069924428   -2.3880215    1.1618503   475860 
  464000    1.0055585   -2.3865112   -2.3865112   -1.2253739   0.06893418   -2.3865112    1.1611373   475860 
  465000    1.0048495   -2.3860725   -2.3860725   -1.2257539   0.06950986   -2.3860725    1.1603186   475860 
  466000    1.0039154   -2.3860784   -2.3860784   -1.2268384  0.065194314   -2.3860784      1.15924   475860 
  467000    1.0039548   -2.3854398   -2.3854398   -1.2261543  0.068904222   -2.3854398    1.1592855   475860 
  468000    1.0053386   -2.3876596   -2.3876596   -1.2267761  0.064102126   -2.3876596    1.1608835   475860 
  469000    1.0029096   -2.3846083   -2.3846083   -1.2265297    0.0711191   -2.3846083    1.1580786   475860 
  470000    1.0030518   -2.3847217   -2.3847217   -1.2264789  0.069322364   -2.3847217    1.1582428   475860 
  471000    1.0033789   -2.3851566   -2.3851566    -1.226536  0.064333608   -2.3851566    1.1586205   475860 
  472000    1.0025949   -2.3845202   -2.3845202    -1.226805  0.066776004   -2.3845202    1.1577152   475860 
  473000    1.0040068   -2.3850394   -2.3850394   -1.2256939  0.069750968   -2.3850394    1.1593455   475860 
  474000    1.0043577   -2.3849341   -2.3849341   -1.2251834  0.074594445   -2.3849341    1.1597507   475860 
  475000    1.0051231   -2.3860026   -2.3860026    -1.225368  0.070171746   -2.3860026    1.1606346   475860 
  476000    1.0043218   -2.3852219   -2.3852219   -1.2255126  0.068947846   -2.3852219    1.1597092   475860 
  477000    1.0034936   -2.3854013   -2.3854013   -1.2266483  0.070921276   -2.3854013    1.1587529   475860 
  478000    1.0028671   -2.3833605   -2.3833605    -1.225331  0.065506861   -2.3833605    1.1580295   475860 
  479000    1.0014881   -2.3819096   -2.3819096   -1.2254724  0.070107421   -2.3819096    1.1564372   475860 
  480000    1.0045168   -2.3843178   -2.3843178   -1.2243834  0.064443379   -2.3843178    1.1599344   475860 
  481000    1.0044383   -2.3846979   -2.3846979   -1.2248541   0.07225741   -2.3846979    1.1598438   475860 
  482000    1.0065726   -2.3868428   -2.3868428   -1.2245345  0.077340564   -2.3868428    1.1623083   475860 
  483000    1.0051761   -2.3856802   -2.3856802   -1.2249845   0.06542271   -2.3856802    1.1606957   475860 
  484000    1.0050201   -2.3850154   -2.3850154   -1.2244998  0.067442153   -2.3850154    1.1605156   475860 
  485000    1.0044122   -2.3855545   -2.3855545   -1.2257408  0.067799219   -2.3855545    1.1598137   475860 
  486000    1.0034532   -2.3844264   -2.3844264     -1.22572  0.063499114   -2.3844264    1.1587063   475860 
  487000    1.0019549   -2.3841859   -2.3841859   -1.2272097  0.064974475   -2.3841859    1.1569762   475860 
  488000    1.0043031   -2.3850227   -2.3850227    -1.225335  0.067116456   -2.3850227    1.1596877   475860 
  489000    1.0036259   -2.3840885   -2.3840885   -1.2251828  0.064215908   -2.3840885    1.1589057   475860 
  490000    1.0032385   -2.3845723   -2.3845723    -1.226114  0.068182023   -2.3845723    1.1584583   475860 
  491000    1.0024164   -2.3832621   -2.3832621   -1.2257529  0.069265636   -2.3832621    1.1575091   475860 
  492000    1.0031656   -2.3830941   -2.3830941   -1.2247199  0.069282408   -2.3830941    1.1583742   475860 
  493000    1.0044218   -2.3845732   -2.3845732   -1.2247484  0.062225962   -2.3845732    1.1598248   475860 
  494000    1.0014164   -2.3819742   -2.3819742   -1.2256199  0.068819334   -2.3819742    1.1563543   475860 
  495000    1.0039522   -2.3838037   -2.3838037   -1.2245212  0.065270005   -2.3838037    1.1592825   475860 
  496000    1.0024791   -2.3825246   -2.3825246   -1.2249431  0.067601204   -2.3825246    1.1575815   475860 
  497000    1.0045064   -2.3847321   -2.3847321   -1.2248097  0.064442746   -2.3847321    1.1599224   475860 
  498000    1.0033271   -2.3836011   -2.3836011   -1.2250404  0.070548124   -2.3836011    1.1585607   475860 
  499000    1.0033985   -2.3842822   -2.3842822   -1.2256391  0.070001066   -2.3842822    1.1586431   475860 
  500000    1.0033086   -2.3833401   -2.3833401   -1.2248008  0.065278143   -2.3833401    1.1585393   475860 
  501000    1.0044656   -2.3838696   -2.3838696   -1.2239942  0.067557845   -2.3838696    1.1598753   475860 
  502000     1.003681   -2.3831128   -2.3831128   -1.2241435  0.067813013   -2.3831128    1.1589693   475860 
  503000     1.003543    -2.382328    -2.382328    -1.223518  0.065219852    -2.382328      1.15881   475860 
  504000    1.0050775    -2.384219    -2.384219    -1.223637  0.066800791    -2.384219     1.160582   475860 
  505000    1.0031183     -2.38283     -2.38283   -1.2245103  0.072723641     -2.38283    1.1583196   475860 
  506000     1.004738    -2.384638    -2.384638   -1.2244482  0.064501851    -2.384638    1.1601899   475860 
  507000    1.0036326   -2.3835784   -2.3835784    -1.224665  0.066310919   -2.3835784    1.1589135   475860 
  508000    1.0042477   -2.3847113   -2.3847113   -1.2250875  0.066987014   -2.3847113    1.1596238   475860 
  509000    1.0043718   -2.3839206   -2.3839206   -1.2241536  0.063447122   -2.3839206     1.159767   475860 
  510000     1.004482   -2.3842109   -2.3842109   -1.2243166  0.075128573   -2.3842109    1.1598943   475860 
  511000    1.0019709   -2.3825731   -2.3825731   -1.2255784  0.069307487   -2.3825731    1.1569947   475860 
  512000    1.0046098   -2.3864274   -2.3864274   -1.2263855   0.07287423   -2.3864274    1.1600419   475860 
  513000    1.0031411   -2.3835228   -2.3835228   -1.2251769  0.068847949   -2.3835228    1.1583459   475860 
  514000    1.0038123     -2.38486     -2.38486   -1.2257391  0.064412044     -2.38486    1.1591209   475860 
  515000    1.0022019   -2.3835438   -2.3835438   -1.2262824  0.068093525   -2.3835438    1.1572614   475860 
  516000    1.0032048   -2.3854495   -2.3854495     -1.22703    0.0626533   -2.3854495    1.1584195   475860 
  517000    1.0037934   -2.3869776   -2.3869776   -1.2278784  0.059929355   -2.3869776    1.1590991   475860 
  518000    1.0016752   -2.3822763   -2.3822763   -1.2256231  0.074435856   -2.3822763    1.1566532   475860 
  519000    1.0037927    -2.384055    -2.384055   -1.2249567  0.066782688    -2.384055    1.1590983   475860 
  520000    1.0022856   -2.3828534   -2.3828534   -1.2254953   0.06952841   -2.3828534    1.1573581   475860 
  521000    1.0027489   -2.3827449   -2.3827449   -1.2248518  0.065054347   -2.3827449     1.157893   475860 
  522000    1.0046546   -2.3845111   -2.3845111   -1.2244175  0.063767664   -2.3845111    1.1600936   475860 
  523000    1.0034904   -2.3828646   -2.3828646   -1.2241153  0.074404405   -2.3828646    1.1587493   475860 
  524000    1.0039519   -2.3836207   -2.3836207   -1.2243386  0.064411577   -2.3836207    1.1592821   475860 
  525000    1.0027103   -2.3837889   -2.3837889   -1.2259405   0.06995023   -2.3837889    1.1578484   475860 
  526000    1.0031468   -2.3835899   -2.3835899   -1.2252374  0.064249464   -2.3835899    1.1583525   475860 
  527000    1.0028072   -2.3832811   -2.3832811   -1.2253208  0.064064482   -2.3832811    1.1579603   475860 
  528000    1.0035459   -2.3829067   -2.3829067   -1.2240934  0.068978429   -2.3829067    1.1588133   475860 
  529000    1.0052039   -2.3853966   -2.3853966   -1.2246687  0.071974864   -2.3853966    1.1607279   475860 
  530000    1.0042646   -2.3848955   -2.3848955   -1.2252523  0.065487047   -2.3848955    1.1596432   475860 
  531000    1.0038084   -2.3838766   -2.3838766   -1.2247601  0.072828117   -2.3838766    1.1591165   475860 
  532000     1.003726   -2.3833245   -2.3833245   -1.2243032   0.06787667   -2.3833245    1.1590213   475860 
  533000    1.0044718     -2.38522     -2.38522   -1.2253376  0.063972221     -2.38522    1.1598824   475860 
  534000      1.00393   -2.3843498   -2.3843498    -1.225093   0.07116184   -2.3843498    1.1592568   475860 
  535000     1.004624   -2.3848366   -2.3848366   -1.2247783  0.074076554   -2.3848366    1.1600583   475860 
  536000     1.003649   -2.3847959   -2.3847959   -1.2258635  0.070473117   -2.3847959    1.1589324   475860 
  537000    1.0019223   -2.3833869   -2.3833869   -1.2264484   0.06558172   -2.3833869    1.1569386   475860 
  538000    1.0034926   -2.3847003   -2.3847003   -1.2259485  0.061068521   -2.3847003    1.1587518   475860 
  539000    1.0040811   -2.3856575   -2.3856575   -1.2262262  0.072493492   -2.3856575    1.1594313   475860 
  540000    1.0046167   -2.3864383   -2.3864383   -1.2263886  0.066697103   -2.3864383    1.1600498   475860 
  541000    1.0028778   -2.3842733   -2.3842733   -1.2262314  0.067647077   -2.3842733    1.1580419   475860 
  542000    1.0021625   -2.3845709   -2.3845709    -1.227355  0.064415829   -2.3845709    1.1572159   475860 
  543000    1.0033075   -2.3858003   -2.3858003   -1.2272623  0.065102861   -2.3858003    1.1585381   475860 
  544000    1.0036722   -2.3860597   -2.3860597   -1.2271004  0.065064162   -2.3860597    1.1589592   475860 
  545000    1.0043896   -2.3870394   -2.3870394   -1.2272519  0.067747927   -2.3870394    1.1597875   475860 
  546000    1.0041692   -2.3876658   -2.3876658   -1.2281328  0.063756982   -2.3876658    1.1595331   475860 
  547000    1.0023568   -2.3849558   -2.3849558   -1.2275156  0.068881411   -2.3849558    1.1574403   475860 
  548000    1.0050195   -2.3865581   -2.3865581   -1.2260431  0.070080648   -2.3865581    1.1605149   475860 
  549000    1.0052916   -2.3871843   -2.3871843   -1.2263552  0.073956208   -2.3871843    1.1608291   475860 
  550000    1.0046222   -2.3865828   -2.3865828   -1.2265266    0.0658779   -2.3865828    1.1600562   475860 
  551000    1.0029816   -2.3836411   -2.3836411   -1.2254794  0.071668209   -2.3836411    1.1581617   475860 
  552000    1.0024256   -2.3836825   -2.3836825   -1.2261629  0.064079738   -2.3836825    1.1575197   475860 
  553000    1.0034694    -2.384795    -2.384795     -1.22607  0.069910526    -2.384795     1.158725   475860 
  554000     1.004993   -2.3868189   -2.3868189   -1.2263346  0.070586708   -2.3868189    1.1604843   475860 
  555000    1.0050688   -2.3875143   -2.3875143   -1.2269424  0.065929194   -2.3875143    1.1605719   475860 
  556000    1.0035378   -2.3855039   -2.3855039   -1.2266999  0.075508851   -2.3855039     1.158804   475860 
  557000    1.0039286   -2.3862278   -2.3862278   -1.2269725  0.061504214   -2.3862278    1.1592553   475860 
  558000    1.0034822   -2.3859188   -2.3859188    -1.227179  0.063466175   -2.3859188    1.1587398   475860 
  559000    1.0051317   -2.3876809   -2.3876809   -1.2270364  0.066883427   -2.3876809    1.1606445   475860 
  560000    1.0044335   -2.3873092   -2.3873092    -1.227471  0.063519838   -2.3873092    1.1598383   475860 
  561000     1.002917   -2.3856489   -2.3856489   -1.2275617  0.064803863   -2.3856489    1.1580871   475860 
  562000    1.0034222   -2.3850572   -2.3850572   -1.2263868  0.072637075   -2.3850572    1.1586705   475860 
  563000    1.0031846   -2.3851533   -2.3851533   -1.2267571  0.068252243   -2.3851533    1.1583962   475860 
  564000    1.0043233   -2.3868099   -2.3868099   -1.2270988  0.064488202   -2.3868099     1.159711   475860 
  565000    1.0037175   -2.3863652   -2.3863652   -1.2273537  0.071469024   -2.3863652    1.1590115   475860 
  566000    1.0027244   -2.3849365   -2.3849365   -1.2270718  0.066364664   -2.3849365    1.1578647   475860 
  567000     1.004062   -2.3869714   -2.3869714   -1.2275622  0.061784312   -2.3869714    1.1594093   475860 
  568000    1.0034553   -2.3863627   -2.3863627    -1.227654  0.066909277   -2.3863627    1.1587087   475860 
  569000    1.0037544    -2.387674    -2.387674   -1.2286198  0.058493631    -2.387674    1.1590541   475860 
  570000    1.0028142   -2.3852916   -2.3852916   -1.2273232  0.064995631   -2.3852916    1.1579684   475860 
  571000    1.0032774   -2.3853901   -2.3853901   -1.2268868   0.07094061   -2.3853901    1.1585033   475860 
  572000    1.0036033   -2.3875247   -2.3875247    -1.228645  0.061923822   -2.3875247    1.1588797   475860 
  573000     1.002759   -2.3864816   -2.3864816   -1.2285769  0.068827433   -2.3864816    1.1579047   475860 
  574000    1.0034701   -2.3874111   -2.3874111   -1.2286853  0.066801016   -2.3874111    1.1587259   475860 
  575000    1.0036962   -2.3875008   -2.3875008   -1.2285139  0.064094426   -2.3875008    1.1589868   475860 
  576000    1.0022608    -2.386107    -2.386107   -1.2287776  0.061408547    -2.386107    1.1573294   475860 
  577000    1.0013447   -2.3853272   -2.3853272   -1.2290557  0.067798875   -2.3853272    1.1562715   475860 
  578000    1.0030622   -2.3857261   -2.3857261   -1.2274712  0.061309494   -2.3857261    1.1582548   475860 
  579000    1.0026798   -2.3859997   -2.3859997   -1.2281865  0.066684358   -2.3859997    1.1578133   475860 
  580000    1.0018735   -2.3850722   -2.3850722     -1.22819  0.060770323   -2.3850722    1.1568822   475860 
  581000    1.0018027    -2.385142    -2.385142   -1.2283416   0.06894874    -2.385142    1.1568004   475860 
  582000    1.0027733   -2.3861546   -2.3861546   -1.2282334  0.062674952   -2.3861546    1.1579212   475860 
  583000    1.0007904   -2.3839551   -2.3839551   -1.2283236  0.067161567   -2.3839551    1.1556316   475860 
  584000    1.0024942   -2.3860439   -2.3860439    -1.228445  0.069160332   -2.3860439    1.1575989   475860 
  585000    1.0007049   -2.3835164   -2.3835164   -1.2279836  0.065182789   -2.3835164    1.1555328   475860 
  586000    1.0028187   -2.3849184   -2.3849184   -1.2269448  0.061672961   -2.3849184    1.1579737   475860 
  587000    1.0027331    -2.385492    -2.385492   -1.2276172  0.069879252    -2.385492    1.1578747   475860 
  588000    1.0045913   -2.3872804   -2.3872804   -1.2272599  0.063887053   -2.3872804    1.1600205   475860 
  589000    1.0041284   -2.3869876   -2.3869876   -1.2275016  0.077022584   -2.3869876     1.159486   475860 
  590000    1.0050489   -2.3879106   -2.3879106   -1.2273618  0.067043302   -2.3879106    1.1605488   475860 
  591000    1.0050126   -2.3868464   -2.3868464   -1.2263394  0.067083274   -2.3868464     1.160507   475860 
  592000    1.0046464   -2.3864079   -2.3864079   -1.2263238  0.067095158   -2.3864079    1.1600841   475860 
  593000    1.0037153   -2.3861881   -2.3861881   -1.2271792  0.067493982   -2.3861881     1.159009   475860 
  594000    1.0026835   -2.3869042   -2.3869042   -1.2290867  0.066012838   -2.3869042    1.1578175   475860 
  595000    1.0037346   -2.3878989   -2.3878989   -1.2288676  0.071467136   -2.3878989    1.1590313   475860 
  596000     1.003849   -2.3887621   -2.3887621   -1.2295987  0.069011339   -2.3887621    1.1591634   475860 
  597000    1.0058293   -2.3889852   -2.3889852   -1.2275351  0.077079474   -2.3889852      1.16145   475860 
  598000    1.0034123   -2.3863685   -2.3863685   -1.2277095  0.070113079   -2.3863685    1.1586591   475860 
  599000    1.0064196    -2.390194    -2.390194   -1.2280623  0.067011995    -2.390194    1.1621317   475860 
  600000    1.0040109   -2.3859591   -2.3859591   -1.2266088  0.071928947   -2.3859591    1.1593503   475860 
  601000    1.0045016   -2.3867632   -2.3867632   -1.2268463  0.069689829   -2.3867632    1.1599169   475860 
  602000    1.0051444   -2.3869922   -2.3869922   -1.2263331  0.065579199   -2.3869922    1.1606591   475860 
  603000    1.0031519   -2.3852491   -2.3852491   -1.2268907  0.068362517   -2.3852491    1.1583584   475860 
  604000    1.0037261   -2.3863244   -2.3863244   -1.2273029  0.069043093   -2.3863244    1.1590214   475860 
  605000    1.0047134    -2.387541    -2.387541   -1.2273795  0.069096479    -2.387541    1.1601615   475860 
  606000    1.0059946   -2.3889927   -2.3889927   -1.2273518  0.067800773   -2.3889927    1.1616409   475860 
  607000    1.0035275   -2.3875197   -2.3875197   -1.2287276  0.074471523   -2.3875197    1.1587921   475860 
  608000    1.0029543   -2.3867124   -2.3867124   -1.2285821   0.07390995   -2.3867124    1.1581302   475860 
  609000    1.0046579   -2.3894176   -2.3894176   -1.2293202  0.057924445   -2.3894176    1.1600974   475860 
  610000    1.0008728   -2.3852445   -2.3852445   -1.2295177  0.071757793   -2.3852445    1.1557267   475860 
  611000    1.0022808   -2.3868454   -2.3868454   -1.2294929  0.066495714   -2.3868454    1.1573525   475860 
  612000     1.000861    -2.386708    -2.386708    -1.230995  0.067739497    -2.386708     1.155713   475860 
  613000    1.0023696   -2.3869514   -2.3869514   -1.2294964  0.069835341   -2.3869514     1.157455   475860 
  614000    1.0028661   -2.3878103   -2.3878103    -1.229782  0.069930962   -2.3878103    1.1580283   475860 
  615000    1.0022372   -2.3860638   -2.3860638   -1.2287617  0.065629879   -2.3860638    1.1573021   475860 
  616000    1.0030922   -2.3870012   -2.3870012   -1.2287117   0.06113982   -2.3870012    1.1582894   475860 
  617000    1.0039554   -2.3872252   -2.3872252   -1.2279389  0.070626415   -2.3872252    1.1592862   475860 
  618000    1.0026143   -2.3860461   -2.3860461   -1.2283085  0.068527453   -2.3860461    1.1577376   475860 
  619000    1.0032762   -2.3873079   -2.3873079   -1.2288059  0.068431385   -2.3873079    1.1585019   475860 
  620000    1.0035093   -2.3877641   -2.3877641   -1.2289931  0.070202163   -2.3877641    1.1587711   475860 
  621000    1.0035522   -2.3868583   -2.3868583   -1.2280377   0.06855136   -2.3868583    1.1588206   475860 
  622000     1.004536   -2.3876005   -2.3876005   -1.2276439  0.065568341   -2.3876005    1.1599566   475860 
  623000    1.0047796   -2.3866103   -2.3866103   -1.2263724  0.064575131   -2.3866103    1.1602379   475860 
  624000    1.0042816   -2.3857705   -2.3857705   -1.2261076  0.067144911   -2.3857705    1.1596629   475860 
  625000    1.0016232   -2.3833038   -2.3833038   -1.2267106  0.064367228   -2.3833038    1.1565931   475860 
  626000    1.0026309   -2.3843445   -2.3843445   -1.2265878  0.064978579   -2.3843445    1.1577568   475860 
  627000    1.0032805   -2.3852262   -2.3852262   -1.2267193  0.071279668   -2.3852262    1.1585068   475860 
  628000    1.0026015   -2.3853287   -2.3853287   -1.2276059   0.06101815   -2.3853287    1.1577228   475860 
  629000    1.0026436   -2.3858747   -2.3858747   -1.2281033  0.069533345   -2.3858747    1.1577714   475860 
  630000    1.0024481   -2.3852548   -2.3852548   -1.2277091  0.066264823   -2.3852548    1.1575457   475860 
  631000    1.0026014   -2.3859702   -2.3859702   -1.2282475  0.070989426   -2.3859702    1.1577227   475860 
  632000    1.0037085   -2.3875448   -2.3875448   -1.2285437  0.068288742   -2.3875448    1.1590011   475860 
  633000    1.0048568   -2.3883693   -2.3883693   -1.2280423  0.066472401   -2.3883693     1.160327   475860 
  634000    1.0047079   -2.3878624   -2.3878624   -1.2277072  0.067298439   -2.3878624    1.1601551   475860 
  635000    1.0038788   -2.3868449   -2.3868449   -1.2276471  0.066628461   -2.3868449    1.1591978   475860 
  636000    1.0034564   -2.3859994   -2.3859994   -1.2272894  0.069343816   -2.3859994      1.15871   475860 
  637000    1.0045791   -2.3866311   -2.3866311   -1.2266247  0.068609243   -2.3866311    1.1600063   475860 
  638000    1.0036421    -2.385338    -2.385338   -1.2264136   0.07158646    -2.385338    1.1589244   475860 
  639000    1.0039579   -2.3860634   -2.3860634   -1.2267743  0.064602854   -2.3860634    1.1592891   475860 
  640000    1.0044152   -2.3864509   -2.3864509   -1.2266338   0.06976225   -2.3864509    1.1598171   475860 
  641000    1.0055754   -2.3879636   -2.3879636   -1.2268067  0.059950459   -2.3879636    1.1611568   475860 
  642000    1.0043376   -2.3864031   -2.3864031   -1.2266756  0.069459204   -2.3864031    1.1597275   475860 
[...]
 9832000    1.0062924    -2.404995    -2.404995   -1.2430102  0.074408902    -2.404995    1.1619848   475860 
 9833000    1.0063638   -2.4044501   -2.4044501   -1.2423829  0.067318795   -2.4044501    1.1620672   475860 
 9834000    1.0078988   -2.4053224   -2.4053224   -1.2414827  0.071749289   -2.4053224    1.1638398   475860 
 9835000    1.0068307   -2.4051909   -2.4051909   -1.2425846  0.070289356   -2.4051909    1.1626064   475860 
 9836000    1.0060477   -2.4036868   -2.4036868   -1.2419846  0.070321128   -2.4036868    1.1617023   475860 
 9837000    1.0064242   -2.4055689   -2.4055689    -1.243432  0.068939339   -2.4055689     1.162137   475860 
 9838000    1.0073559   -2.4055303   -2.4055303   -1.2423175  0.068983059   -2.4055303    1.1632128   475860 
 9839000    1.0081882   -2.4073011   -2.4073011   -1.2431272  0.067624989   -2.4073011    1.1641739   475860 
 9840000    1.0070559   -2.4062602   -2.4062602   -1.2433939  0.073842089   -2.4062602    1.1628664   475860 
 9841000    1.0065938   -2.4064021   -2.4064021   -1.2440693  0.075200261   -2.4064021    1.1623328   475860 
 9842000    1.0083279   -2.4084944   -2.4084944   -1.2441592  0.067524109   -2.4084944    1.1643352   475860 
 9843000    1.0075588   -2.4082585   -2.4082585   -1.2448114  0.073191397   -2.4082585    1.1634471   475860 
 9844000     1.006771   -2.4078851   -2.4078851   -1.2453477  0.069752372   -2.4078851    1.1625374   475860 
 9845000    1.0064279   -2.4077942   -2.4077942    -1.245653  0.070957168   -2.4077942    1.1621412   475860 
 9846000    1.0059428   -2.4062514   -2.4062514   -1.2446703  0.070185817   -2.4062514     1.161581   475860 
 9847000    1.0061144   -2.4059878   -2.4059878   -1.2442086  0.071121429   -2.4059878    1.1617793   475860 
 9848000      1.00684    -2.407946    -2.407946   -1.2453288  0.065375077    -2.407946    1.1626171   475860 
 9849000    1.0055483   -2.4066768   -2.4066768   -1.2455512  0.074210509   -2.4066768    1.1611256   475860 
 9850000    1.0082259   -2.4087237   -2.4087237   -1.2445063  0.069193459   -2.4087237    1.1642174   475860 
 9851000    1.0064181   -2.4066242   -2.4066242   -1.2444942   0.06601227   -2.4066242      1.16213   475860 
 9852000     1.005815    -2.406683    -2.406683   -1.2452494  0.065245185    -2.406683    1.1614335   475860 
 9853000    1.0073911    -2.407213    -2.407213   -1.2439595  0.069604568    -2.407213    1.1632535   475860 
 9854000    1.0081162    -2.406829    -2.406829   -1.2427383   0.06953339    -2.406829    1.1640907   475860 
 9855000    1.0063954    -2.405589    -2.405589   -1.2434853  0.065907529    -2.405589    1.1621037   475860 
 9856000     1.006331   -2.4057314   -2.4057314   -1.2437021  0.066500387   -2.4057314    1.1620293   475860 
 9857000    1.0065324   -2.4054223   -2.4054223   -1.2431603  0.076040713   -2.4054223    1.1622619   475860 
 9858000    1.0065326   -2.4061886   -2.4061886   -1.2439265   0.06701657   -2.4061886    1.1622622   475860 
 9859000    1.0063383    -2.405052    -2.405052   -1.2430142  0.068973114    -2.405052    1.1620378   475860 
 9860000    1.0038493   -2.4031253   -2.4031253   -1.2439616  0.067931354   -2.4031253    1.1591637   475860 
 9861000    1.0048393   -2.4032511   -2.4032511   -1.2429442  0.062252638   -2.4032511    1.1603069   475860 
 9862000    1.0074159   -2.4053672   -2.4053672   -1.2420851  0.072478203   -2.4053672    1.1632821   475860 
 9863000    1.0073181   -2.4046236   -2.4046236   -1.2414544  0.064399982   -2.4046236    1.1631692   475860 
 9864000    1.0067089   -2.4044772   -2.4044772   -1.2420115  0.066653541   -2.4044772    1.1624657   475860 
 9865000    1.0058423   -2.4034898   -2.4034898   -1.2420247  0.063634553   -2.4034898    1.1614651   475860 
 9866000    1.0058193   -2.4025391   -2.4025391   -1.2411006  0.071374947   -2.4025391    1.1614385   475860 
 9867000    1.0058161   -2.4028411   -2.4028411   -1.2414064  0.065230329   -2.4028411    1.1614347   475860 
 9868000    1.0057554    -2.403117    -2.403117   -1.2417523  0.063589287    -2.403117    1.1613647   475860 
 9869000    1.0045766   -2.4020439   -2.4020439   -1.2420403  0.069313535   -2.4020439    1.1600036   475860 
 9870000    1.0067129   -2.4038989   -2.4038989   -1.2414286  0.069116981   -2.4038989    1.1624703   475860 
 9871000     1.004638     -2.40226     -2.40226   -1.2421855  0.068352626     -2.40226    1.1600745   475860 
 9872000    1.0053725   -2.4024271   -2.4024271   -1.2415045  0.071171077   -2.4024271    1.1609225   475860 
 9873000    1.0040195   -2.4013763   -2.4013763    -1.242016  0.071438157   -2.4013763    1.1593602   475860 
 9874000    1.0059497   -2.4029097   -2.4029097   -1.2413207  0.067595701   -2.4029097    1.1615891   475860 
 9875000    1.0079251   -2.4044336   -2.4044336   -1.2405636    0.0661608   -2.4044336    1.1638701   475860 
 9876000    1.0029675    -2.399991    -2.399991   -1.2418455  0.066374903    -2.399991    1.1581455   475860 
 9877000    1.0064114   -2.4033524   -2.4033524   -1.2412302  0.073012989   -2.4033524    1.1621222   475860 
 9878000    1.0065261   -2.4034956   -2.4034956    -1.241241  0.068266998   -2.4034956    1.1622546   475860 
 9879000    1.0048728   -2.4014177   -2.4014177   -1.2410722  0.068681072   -2.4014177    1.1603455   475860 
 9880000     1.007404   -2.4048698   -2.4048698   -1.2416015  0.067314476   -2.4048698    1.1632684   475860 
 9881000    1.0063865   -2.4029707   -2.4029707   -1.2408773  0.073876988   -2.4029707    1.1620934   475860 
 9882000     1.007167   -2.4046814   -2.4046814   -1.2416867  0.070529509   -2.4046814    1.1629947   475860 
 9883000    1.0058678   -2.4028375   -2.4028375    -1.241343  0.067723573   -2.4028375    1.1614945   475860 
 9884000    1.0064881   -2.4036273   -2.4036273   -1.2414165   0.07213734   -2.4036273    1.1622108   475860 
 9885000    1.0078947   -2.4051987   -2.4051987   -1.2413637  0.070061638   -2.4051987    1.1638349   475860 
 9886000    1.0070663   -2.4043872   -2.4043872   -1.2415087  0.068773288   -2.4043872    1.1628785   475860 
 9887000    1.0093277   -2.4060758   -2.4060758   -1.2405861   0.07329701   -2.4060758    1.1654897   475860 
 9888000    1.0070901    -2.403437    -2.403437   -1.2405311  0.072592424    -2.403437    1.1629059   475860 
 9889000    1.0070778   -2.4036705   -2.4036705   -1.2407787  0.067595166   -2.4036705    1.1628917   475860 
 9890000    1.0068271   -2.4030471   -2.4030471   -1.2404449  0.065801154   -2.4030471    1.1626022   475860 
 9891000    1.0057585    -2.402069    -2.402069   -1.2407007  0.073399792    -2.402069    1.1613683   475860 
 9892000    1.0063465   -2.4031334   -2.4031334   -1.2410862  0.077285004   -2.4031334    1.1620472   475860 
 9893000    1.0072814   -2.4041068   -2.4041068   -1.2409799  0.070662716   -2.4041068    1.1631268   475860 
 9894000    1.0070698   -2.4029544   -2.4029544    -1.240072  0.073203377   -2.4029544    1.1628825   475860 
 9895000    1.0079889   -2.4046603   -2.4046603   -1.2407165  0.065154974   -2.4046603    1.1639438   475860 
 9896000     1.006336   -2.4022386   -2.4022386   -1.2402035   0.06573063   -2.4022386    1.1620352   475860 
 9897000    1.0055316   -2.4027456   -2.4027456   -1.2416394  0.063646131   -2.4027456    1.1611063   475860 
 9898000    1.0069882   -2.4030605   -2.4030605   -1.2402723  0.072474773   -2.4030605    1.1627882   475860 
 9899000    1.0056071   -2.4020177   -2.4020177   -1.2408242  0.064067939   -2.4020177    1.1611935   475860 
 9900000    1.0056288   -2.4015028   -2.4015028   -1.2402843  0.070376541   -2.4015028    1.1612185   475860 
 9901000     1.007363   -2.4017461   -2.4017461   -1.2385251  0.070817656   -2.4017461     1.163221   475860 
 9902000    1.0082996   -2.4031777   -2.4031777   -1.2388751  0.074110307   -2.4031777    1.1643025   475860 
 9903000    1.0081775   -2.4032249   -2.4032249   -1.2390633  0.065357596   -2.4032249    1.1641615   475860 
 9904000    1.0065418   -2.4012683   -2.4012683   -1.2389956  0.072020555   -2.4012683    1.1622727   475860 
 9905000    1.0058729   -2.4010155   -2.4010155   -1.2395151  0.064577059   -2.4010155    1.1615003   475860 
 9906000    1.0067214   -2.4024982   -2.4024982    -1.240018  0.057608311   -2.4024982    1.1624802   475860 
 9907000    1.0064042   -2.4029923   -2.4029923   -1.2408785  0.065442667   -2.4029923    1.1621139   475860 
 9908000     1.006557   -2.4022389   -2.4022389   -1.2399485  0.062977214   -2.4022389    1.1622903   475860 
 9909000    1.0068243   -2.4020807   -2.4020807   -1.2394817  0.071501006   -2.4020807     1.162599   475860 
 9910000      1.00728   -2.4027576   -2.4027576   -1.2396324   0.07435911   -2.4027576    1.1631251   475860 
 9911000    1.0050517   -2.4013476   -2.4013476   -1.2407955  0.066788042   -2.4013476    1.1605521   475860 
 9912000    1.0060708   -2.4025195   -2.4025195   -1.2407905  0.062918288   -2.4025195    1.1617289   475860 
 9913000    1.0070499   -2.4036958   -2.4036958   -1.2408363   0.07045613   -2.4036958    1.1628595   475860 
 9914000     1.008037   -2.4042067   -2.4042067   -1.2402074  0.063548256   -2.4042067    1.1639993   475860 
 9915000    1.0079568   -2.4037049   -2.4037049   -1.2397983  0.067821662   -2.4037049    1.1639066   475860 
 9916000    1.0075699   -2.4043563   -2.4043563   -1.2408964  0.059345777   -2.4043563    1.1634599   475860 
 9917000    1.0061997   -2.4026762   -2.4026762   -1.2407984  0.069064205   -2.4026762    1.1618778   475860 
 9918000    1.0046941   -2.4012067   -2.4012067   -1.2410676   0.06737054   -2.4012067    1.1601392   475860 
 9919000     1.007682   -2.4048071   -2.4048071   -1.2412178  0.067371941   -2.4048071    1.1635893   475860 
 9920000    1.0060327   -2.4025469   -2.4025469    -1.240862  0.068748274   -2.4025469    1.1616849   475860 
 9921000     1.006842   -2.4045476   -2.4045476   -1.2419282  0.067273935   -2.4045476    1.1626194   475860 
 9922000    1.0046241   -2.4015601   -2.4015601   -1.2415017  0.063521297   -2.4015601    1.1600584   475860 
 9923000    1.0063307   -2.4036868   -2.4036868   -1.2416578  0.068532608   -2.4036868     1.162029   475860 
 9924000    1.0046563   -2.4018768   -2.4018768   -1.2417812  0.070749271   -2.4018768    1.1600956   475860 
 9925000    1.0059795   -2.4033938   -2.4033938   -1.2417704  0.060941389   -2.4033938    1.1616234   475860 
 9926000    1.0060172   -2.4020484   -2.4020484   -1.2403814  0.070561665   -2.4020484     1.161667   475860 
 9927000    1.0071831   -2.4022827   -2.4022827   -1.2392694  0.068297725   -2.4022827    1.1630133   475860 
 9928000    1.0077431   -2.4031152   -2.4031152   -1.2394552  0.067752361   -2.4031152      1.16366   475860 
 9929000    1.0071546   -2.4018779   -2.4018779   -1.2388976  0.071792017   -2.4018779    1.1629804   475860 
 9930000    1.0081964   -2.4027931   -2.4027931   -1.2386097  0.068333848   -2.4027931    1.1641834   475860 
 9931000    1.0068423   -2.4004677   -2.4004677   -1.2378479   0.07322666   -2.4004677    1.1626198   475860 
 9932000     1.008065   -2.4021905   -2.4021905   -1.2381588  0.072144233   -2.4021905    1.1640316   475860 
 9933000    1.0075132   -2.4029424   -2.4029424   -1.2395479  0.066857354   -2.4029424    1.1633945   475860 
 9934000    1.0091601   -2.4042539   -2.4042539   -1.2389577  0.066604645   -2.4042539    1.1652961   475860 
 9935000    1.0073227   -2.4029237   -2.4029237   -1.2397492  0.071071499   -2.4029237    1.1631744   475860 
 9936000    1.0079621   -2.4034233   -2.4034233   -1.2395106  0.070345781   -2.4034233    1.1639128   475860 
 9937000    1.0074948   -2.4027306   -2.4027306   -1.2393574  0.067446216   -2.4027306    1.1633732   475860 
 9938000    1.0080574   -2.4045255   -2.4045255   -1.2405026  0.069907904   -2.4045255    1.1640228   475860 
 9939000    1.0069105   -2.4037066   -2.4037066   -1.2410081  0.069902942   -2.4037066    1.1626985   475860 
 9940000    1.0049086   -2.4011874   -2.4011874   -1.2408005  0.068441647   -2.4011874    1.1603869   475860 
 9941000    1.0053432   -2.4020874   -2.4020874   -1.2411987  0.066805371   -2.4020874    1.1608887   475860 
 9942000    1.0072076   -2.4032158   -2.4032158   -1.2401742  0.069985505   -2.4032158    1.1630416   475860 
 9943000    1.0061083    -2.402018    -2.402018   -1.2402458  0.072243702    -2.402018    1.1617722   475860 
 9944000    1.0062311   -2.4027845   -2.4027845   -1.2408705  0.069094147   -2.4027845     1.161914   475860 
 9945000    1.0079079   -2.4046034   -2.4046034   -1.2407532  0.069788043   -2.4046034    1.1638502   475860 
 9946000    1.0045726   -2.4009193   -2.4009193   -1.2409204  0.071432183   -2.4009193    1.1599989   475860 
 9947000    1.0077604   -2.4039724   -2.4039724   -1.2402924  0.067802426   -2.4039724    1.1636799   475860 
 9948000    1.0078045   -2.4039783   -2.4039783   -1.2402476  0.070582737   -2.4039783    1.1637308   475860 
 9949000     1.008217   -2.4057219   -2.4057219   -1.2415147  0.070054527   -2.4057219    1.1642072   475860 
 9950000    1.0055606   -2.4029684   -2.4029684   -1.2418287  0.069950065   -2.4029684    1.1611397   475860 
 9951000    1.0044285   -2.4008602   -2.4008602   -1.2410277  0.074643514   -2.4008602    1.1598325   475860 
 9952000    1.0045403   -2.4011102   -2.4011102   -1.2411487  0.068492327   -2.4011102    1.1599616   475860 
 9953000    1.0051624   -2.4004824   -2.4004824   -1.2398025  0.069212425   -2.4004824    1.1606799   475860 
 9954000    1.0053629   -2.4019088   -2.4019088   -1.2409973  0.071314993   -2.4019088    1.1609115   475860 
 9955000     1.006846   -2.4029042   -2.4029042   -1.2402801  0.070795804   -2.4029042    1.1626241   475860 
 9956000     1.007402   -2.4028597   -2.4028597   -1.2395937  0.071712565   -2.4028597    1.1632661   475860 
 9957000    1.0071496     -2.40338     -2.40338   -1.2404054  0.073348455     -2.40338    1.1629746   475860 
 9958000    1.0075632    -2.403718    -2.403718   -1.2402657  0.073233809    -2.403718    1.1634522   475860 
 9959000    1.0079416   -2.4049757   -2.4049757   -1.2410866  0.072400229   -2.4049757    1.1638891   475860 
 9960000     1.005717   -2.4035693   -2.4035693    -1.242249  0.062816347   -2.4035693    1.1613203   475860 
 9961000    1.0045931    -2.402282    -2.402282   -1.2422595    0.0720381    -2.402282    1.1600225   475860 
 9962000    1.0055323   -2.4032526   -2.4032526   -1.2421455  0.073325334   -2.4032526    1.1611071   475860 
 9963000      1.00667   -2.4045088   -2.4045088    -1.242088  0.064328922   -2.4045088    1.1624208   475860 
 9964000    1.0053497   -2.4027844   -2.4027844   -1.2418881  0.070039303   -2.4027844    1.1608963   475860 
 9965000    1.0056591    -2.403233    -2.403233   -1.2419795   0.07133991    -2.403233    1.1612535   475860 
 9966000    1.0068574    -2.404669    -2.404669   -1.2420318  0.073501982    -2.404669    1.1626372   475860 
 9967000    1.0067203   -2.4039667   -2.4039667   -1.2414878  0.067944768   -2.4039667    1.1624788   475860 
 9968000    1.0053201   -2.4031695   -2.4031695   -1.2423074    0.0722643   -2.4031695    1.1608621   475860 
 9969000    1.0056004   -2.4031714   -2.4031714   -1.2419857  0.071779717   -2.4031714    1.1611857   475860 
 9970000    1.0071424   -2.4052738   -2.4052738   -1.2423075    0.0718243   -2.4052738    1.1629663   475860 
 9971000    1.0070504   -2.4050058   -2.4050058   -1.2421457  0.064655966   -2.4050058    1.1628601   475860 
 9972000    1.0066567   -2.4038965   -2.4038965    -1.241491  0.068321799   -2.4038965    1.1624055   475860 
 9973000    1.0046322   -2.4023091   -2.4023091   -1.2422414  0.065454559   -2.4023091    1.1600677   475860 
 9974000    1.0054827   -2.4027303   -2.4027303   -1.2416804  0.076416846   -2.4027303    1.1610498   475860 
 9975000    1.0063916   -2.4046104   -2.4046104    -1.242511  0.069440704   -2.4046104    1.1620993   475860 
 9976000    1.0071069    -2.404427    -2.404427   -1.2415016  0.071235872    -2.404427    1.1629253   475860 
 9977000    1.0058285   -2.4037848   -2.4037848   -1.2423357    0.0705719   -2.4037848    1.1614491   475860 
 9978000    1.0062948   -2.4043341   -2.4043341   -1.2423466  0.064553874   -2.4043341    1.1619875   475860 
 9979000    1.0069482   -2.4053109   -2.4053109   -1.2425689  0.069622441   -2.4053109     1.162742   475860 
 9980000    1.0076894   -2.4058392   -2.4058392   -1.2422413  0.072750107   -2.4058392    1.1635979   475860 
 9981000    1.0061943   -2.4049595   -2.4049595   -1.2430879  0.067154286   -2.4049595    1.1618715   475860 
 9982000      1.00675   -2.4050775   -2.4050775   -1.2425643  0.080577874   -2.4050775    1.1625131   475860 
 9983000    1.0079092   -2.4075408   -2.4075408    -1.243689  0.062783359   -2.4075408    1.1638518   475860 
 9984000    1.0065578   -2.4045154   -2.4045154   -1.2422242  0.078267452   -2.4045154    1.1622912   475860 
 9985000     1.007456   -2.4066819   -2.4066819   -1.2433535  0.068937689   -2.4066819    1.1633284   475860 
 9986000    1.0083405    -2.407241    -2.407241   -1.2428913  0.070192323    -2.407241    1.1643497   475860 
 9987000    1.0076516    -2.406194    -2.406194   -1.2426398  0.074926265    -2.406194    1.1635542   475860 
 9988000    1.0046605   -2.4047168   -2.4047168   -1.2446164  0.072510279   -2.4047168    1.1601004   475860 
 9989000    1.0054708   -2.4039356   -2.4039356   -1.2428996   0.06807631   -2.4039356     1.161036   475860 
 9990000    1.0056755   -2.4039192   -2.4039192   -1.2426469  0.066034216   -2.4039192    1.1612724   475860 
 9991000    1.0056045   -2.4022667   -2.4022667   -1.2410762  0.063845038   -2.4022667    1.1611905   475860 
 9992000    1.0053918   -2.4027117   -2.4027117   -1.2417668  0.076737092   -2.4027117    1.1609448   475860 
 9993000    1.0059805    -2.403506    -2.403506   -1.2418814  0.072840378    -2.403506    1.1616246   475860 
 9994000    1.0074603   -2.4057905   -2.4057905   -1.2424571  0.063041208   -2.4057905    1.1633334   475860 
 9995000    1.0063771   -2.4043072   -2.4043072   -1.2422246  0.063621675   -2.4043072    1.1620826   475860 
 9996000    1.0069635    -2.404726    -2.404726   -1.2419663  0.070835993    -2.404726    1.1627597   475860 
 9997000    1.0058775   -2.4033487   -2.4033487    -1.241843  0.068360802   -2.4033487    1.1615057   475860 
 9998000    1.0058495   -2.4026848   -2.4026848   -1.2412114  0.063415282   -2.4026848    1.1614734   475860 
 9999000      1.00675    -2.403905    -2.403905   -1.2413918  0.066763098    -2.403905    1.1625132   475860 
10000000    1.0059033   -2.4030041   -2.4030041   -1.2414686  0.065639337   -2.4030041    1.1615354   475860 
Loop time of 40904.3 on 288 procs for 10000000 steps with 475860 atoms

Performance: 105612.374 tau/day, 244.473 timesteps/s
93.6% CPU use with 288 MPI tasks x 1 OpenMP threads

MPI task timing breakdown:
Section |  min time  |  avg time  |  max time  |%varavg|  %CPU | %total
-----------------------------------------------------------------------
Pair    | 1047.1     | 3514.9     | 4937.9     |1927.6 |  95.7 |  8.59
Bond    | 6.2133     | 6.6817     | 7.0791     |   6.2 | 100.0 |  0.02
Neigh   | 1379.8     | 2935.8     | 3328.4     | 756.9 |  99.1 |  7.18
Comm    | 3181       | 5016.3     | 7515.2     |1565.3 |  93.8 | 12.26
Output  | 552.67     | 13769      | 13852      | 665.0 |  90.7 | 33.66
Modify  | 14823      | 15494      | 28903      | 799.1 |  94.9 | 37.88
Other   |            | 168.2      |            |       |       |  0.41

Nlocal:        1652.29 ave        2957 max        1129 min
Histogram: 9 11 175 77 11 2 1 1 0 1
Nghost:        4011.47 ave        7711 max        2155 min
Histogram: 24 81 37 43 50 19 9 14 6 5
Neighs:        34217.9 ave       52282 max        4831 min
Histogram: 41 30 7 13 7 8 8 22 90 62

Total # of neighbors = 9854743
Ave neighs/atom = 20.709333
Ave special neighs/atom = 0.0000000
Neighbor list builds = 1000000
Dangerous builds = 990000

Total wall time: 11:21:51
