LAMMPS (24 Dec 2020)
OMP_NUM_THREADS environment is not set. Defaulting to 1 thread. (src/comm.cpp:94)
  using 1 OpenMP thread(s) per MPI task
#Read the equilibrated lj fluid and add nanocubes

units           lj
atom_style      full
#atom_modify     map array first cubes
dimension       3
boundary        p p f
pair_style      lj/cut/opt 2.5

variable        sigma           equal 1.0
variable        epsilon         equal 1.0
read_restart	restart.dat.10000000
Reading restart file ...
  restart file = 24 Dec 2020, LAMMPS = 24 Dec 2020
  restoring atom style full from restart
  orthogonal box = (0.0000000 0.0000000 0.0000000) to (120.00000 120.00000 240.00000)
  6 by 8 by 16 MPI processor grid
  restoring pair style lj/cut/opt from restart
  1646021 atoms
Finding 1-2 1-3 1-4 neighbors ...
  special bond factors lj:    0        0        0       
  special bond factors coul:  0        0        0       
     0 = max # of 1-2 neighbors
     0 = max # of 1-3 neighbors
     0 = max # of 1-4 neighbors
     1 = max # of special neighbors
  special bonds CPU = 9.762 seconds
  read_restart CPU = 11.350 seconds

group		solvent type 1
1283911 atoms in group solvent
group 		hull  type 2
136220 atoms in group hull
group 		dummy type 3
225890 atoms in group dummy

neighbor      0.4 bin
neigh_modify  exclude molecule/intra cubes

pair_modify   shift yes

pair_coeff    1 1 1.0 1.0 #solvent
pair_coeff    2 2 1.0 1.0 1.12 #np
pair_coeff    3 3 0.0 0.0 0.0 #dummy
pair_coeff    2 3 0.0 0.0 0.0 #np dummy
pair_coeff    1 2 ${sol} 1.0  #np solvent
pair_coeff    1 2 0.6 1.0  
pair_coeff    1 3 0.0 0.0 0.0 #dummy solvent


comm_modify   mode multi cutoff/multi 1 2.5 cutoff/multi 2 2.5 cutoff/multi 3 5.51

reset_timestep 	0

balance 	1.05 shift z 10 1.05
Balancing ...
Unused restart file global fix info:
  fix style: STORE, fix ID: msd_COMPUTE_STORE
Unused restart file peratom fix info:
  fix style: STORE, fix ID: bin1_COMPUTE_STORE
  fix style: STORE, fix ID: bin3_COMPUTE_STORE
Neighbor list info ...
  update every 1 steps, delay 10 steps, check yes
  max neighbors/atom: 2000, page size: 100000
  master list distance cutoff = 2.9
  ghost atom cutoff = 5.51
  binsize = 1.45, bins = 83 83 166
  1 neighbor lists, perpetual/occasional/extra = 1 0 0
  (1) pair lj/cut/opt, perpetual
      attributes: half, newton on
      pair build: half/bin/newton
      stencil: half/bin/3d/newton
      bin: standard
 rebalancing time: 0.029 seconds
  iteration count = 5
  initial/final maximal load/proc = 3201.0000 2802.0000
  initial/final imbalance factor  = 1.4935217 1.3073563
  x cuts: 0.0000000 0.16666667 0.33333333 0.50000000 0.66666667 0.83333333 1.0000000
  y cuts: 0.0000000 0.12500000 0.25000000 0.37500000 0.50000000 0.62500000 0.75000000 0.87500000 1.0000000
  z cuts: 0.0000000 0.052734375 0.10351562 0.15039062 0.20117188 0.24609375 0.29296875 0.34765625 0.39453125 0.44140625 0.49023438 0.54101562 0.59179688 0.65429688 0.70507812 0.75585938 1.0000000

####################### WALLS ###########################

variable       epsilonWall equal 2*${epsilon}
variable       epsilonWall equal 2*1
variable       repulsive   equal   0.7147*${sigma}
variable       repulsive   equal   0.7147*1
variable       full	   equal   3*${sigma}
variable       full	   equal   3*1
region         lowWall block EDGE EDGE EDGE EDGE EDGE 2

fix            topWall all wall/lj93 zhi EDGE 	       ${epsilonWall} ${sigma} ${repulsive} units box
fix            topWall all wall/lj93 zhi EDGE 	       2 ${sigma} ${repulsive} units box
fix            topWall all wall/lj93 zhi EDGE 	       2 1 ${repulsive} units box
fix            topWall all wall/lj93 zhi EDGE 	       2 1 0.7147 units box
fix            lowSol solvent wall/lj93 zlo EDGE                ${epsilonWall} ${sigma} ${full} units box
fix            lowSol solvent wall/lj93 zlo EDGE                2 ${sigma} ${full} units box
fix            lowSol solvent wall/lj93 zlo EDGE                2 1 ${full} units box
fix            lowSol solvent wall/lj93 zlo EDGE                2 1 3 units box
fix 	       lowCub cubes wall/lj93 zlo EDGE                ${epsilonWall} ${sigma} ${repulsive} units box
fix 	       lowCub cubes wall/lj93 zlo EDGE                2 ${sigma} ${repulsive} units box
fix 	       lowCub cubes wall/lj93 zlo EDGE                2 1 ${repulsive} units box
fix 	       lowCub cubes wall/lj93 zlo EDGE                2 1 0.7147 units box


###################### COMPUTES ##########################

compute        bin1 solvent chunk/atom bin/1d z lower 1.0 units box
compute        bin3 solvent chunk/atom bin/3d x lower 5.0 y lower 5.0 z lower 5.0 units box

compute 	pe solvent 	   pe/atom
compute 	pe2 all 	   pe/atom

######################  FIXES ############################


fix             peclet solvent ave/chunk 10 10 10000 bin1 density/number norm                  none ave one file density.profile

fix              temp solvent ave/chunk 10 10 10000 bin1 temp norm                  none ave one file temp.profile

fix 		 dens solvent ave/chunk 10 10 500000 bin3 density/number norm 		 none ave one file dens3.profile

fix		 temp2 solvent ave/chunk 10 10 500000 bin3 temp norm none ave one file temp3.profile

fix 		pe solvent ave/chunk 1 1 500000 bin3 c_pe norm none ave one file pe3.profile



################### INTEGRATION

fix             1 cubes rigid/nve/small molecule
  create bodies CPU = 0.034 seconds
  490 rigid bodies with 362110 atoms
  5.5002725 = max distance from body owner to body atom

fix             2 solvent nve



## Thermostat
region          regthermo block EDGE EDGE EDGE EDGE 0 15
group           thermo dynamic solvent region regthermo every 1000
dynamic group thermo defined
fix             3 thermo langevin ${temp} ${temp} 10 156453
fix             3 thermo langevin 1.0 ${temp} 10 156453
fix             3 thermo langevin 1.0 1.0 10 156453

## Evaporation
region		regevap block EDGE EDGE EDGE EDGE 140 EDGE
fix 		4 solvent evaporate ${evap} 1 regevap 156415
fix 		4 solvent evaporate 37 1 regevap 156415


#### Load balancing

fix             bal all balance 1000 1.05 shift z 10 1.05

############### Diagnostics and computes ###################

compute        	com cubes          rigid/local   1 mol x y z
compute        	quat cubes         rigid/local   1 mol quatw quati quatj quatk

compute 	cc2 cubes 	   chunk/atom 	 molecule
compute 	msd cubes 	   msd/chunk 	 cc2

fix 		msd all ave/time  1 1 10000 c_msd[*] file dump.msd ave one mode vector

dump            1 all custom 500000 dump.lammpstrj id mol type x y z vx vy vz c_pe2
dump		sol  solvent custom 500000 dump.soltrj id x y z vx vy vz c_pe
dump		cubetrj cubes custom 500000 cubes.lammpstrj id mol type x y z vx vy vz
dump            com cubes local 500000 dump.*.xyz c_com[*]
dump	        xyz hull xyz 500000 cubes.xyz
#dump            quat cubes      local 100000 dump.*.quat c_quat[*]
dump		order cubes 	local 100000 dump.*.order c_com[*] c_quat[*]
#dump		mol cubes molfile 10000 mol.xyz xyz


dump            2 all image 100000 image.*.png type type zoom 1.5 size 1280 720
dump_modify     2 pad 8
dump		image cubes image 100000 image_cubes.*.png type type zoom 1.5 size 1280 720
dump_modify	image pad 8
dump            3 all movie 5000 movie.avi type type zoom 1.5 size 1280 720
dump		4 cubes movie 5000 movie_cubes.avi type type size 1280 720


thermo          1000
thermo_style    custom step temp epair evdwl etotal press pe ke atoms

restart         1000000 restart.dat
timestep        0.005
timer           full
New timer settings: style=full  mode=nosync  timeout=off

run 		${steps}
run 		30000000
Per MPI rank memory allocation (min/avg/max) = 16.70 | 22.19 | 24.79 Mbytes
Step Temp E_pair E_vdwl TotEng Press PotEng KinEng Atoms 
       0    1.0094424   -2.4468889   -2.4468889   -1.2649273  0.075927042   -2.4468889    1.1819616  1646021 
    1000    1.0092687   -2.4465272   -2.4465272   -1.2647496  0.070949952   -2.4465272    1.1817777  1645994 
    2000    1.0090262   -2.4462364   -2.4462364   -1.2647234  0.072244683   -2.4462364     1.181513  1645967 
    3000    1.0092688   -2.4460981   -2.4460981   -1.2642816  0.072421558   -2.4460981    1.1818165  1645940 
    4000    1.0092191   -2.4463214   -2.4463214   -1.2645437  0.070349378   -2.4463214    1.1817777  1645913 
    5000    1.0086823   -2.4459216   -2.4459216    -1.264753  0.067507591   -2.4459216    1.1811685  1645886 
    6000    1.0085037    -2.445645    -2.445645   -1.2646663  0.067007322    -2.445645    1.1809787  1645859 
    7000    1.0086088   -2.4460847   -2.4460847   -1.2649635  0.069889872   -2.4460847    1.1811212  1645832 
    8000    1.0083117   -2.4456713   -2.4456713   -1.2648787  0.069846569   -2.4456713    1.1807926  1645805 
    9000    1.0087675   -2.4461867   -2.4461867   -1.2648408  0.071725544   -2.4461867    1.1813458  1645778 
   10000    1.0087617   -2.4458155   -2.4458155   -1.2644572  0.068462952   -2.4458155    1.1813583  1645751 
   11000    1.0085459   -2.4460787   -2.4460787   -1.2649537  0.069012934   -2.4460787    1.1811251  1645724 
   12000    1.0084279   -2.4458509   -2.4458509   -1.2648446  0.068046009   -2.4458509    1.1810063  1645697 
   13000    1.0078702   -2.4450736   -2.4450736   -1.2647012  0.068970522   -2.4450736    1.1803724  1645670 
   14000    1.0085071   -2.4460791   -2.4460791   -1.2649414  0.068499554   -2.4460791    1.1811377  1645643 
   15000     1.008467   -2.4457967   -2.4457967   -1.2646866  0.070144641   -2.4457967    1.1811101  1645616 
   16000    1.0082355   -2.4453182   -2.4453182   -1.2644599  0.066625842   -2.4453182    1.1808584  1645589 
   17000     1.008799   -2.4460587   -2.4460587    -1.264521  0.071038499   -2.4460587    1.1815377  1645562 
   18000    1.0087245     -2.44578     -2.44578   -1.2643101  0.073548232     -2.44578    1.1814699  1645535 
   19000    1.0085171   -2.4453698   -2.4453698   -1.2641234  0.072246785   -2.4453698    1.1812464  1645508 
   20000    1.0080193   -2.4445135   -2.4445135   -1.2638308  0.071043888   -2.4445135    1.1806827  1645481 
   21000    1.0091779   -2.4463385   -2.4463385   -1.2642794  0.066678976   -2.4463385    1.1820591  1645454 
   22000    1.0086152   -2.4449868   -2.4449868   -1.2635674  0.069469992   -2.4449868    1.1814194  1645427 
   23000     1.008982   -2.4458449   -2.4458449   -1.2639764  0.067536736   -2.4458449    1.1818684  1645400 
   24000    1.0078625   -2.4447861   -2.4447861   -1.2642096  0.070531187   -2.4447861    1.1805764  1645373 
   25000    1.0089458   -2.4459112   -2.4459112   -1.2640464  0.066128161   -2.4459112    1.1818648  1645346 
   26000    1.0089282   -2.4456696   -2.4456696    -1.263806  0.068682771   -2.4456696    1.1818636  1645319 
   27000    1.0083684   -2.4447607   -2.4447607   -1.2635334   0.07134992   -2.4447607    1.1812273  1645292 
   28000    1.0082376   -2.4447446   -2.4447446   -1.2636512  0.067671287   -2.4447446    1.1810934  1645265 
   29000    1.0081978   -2.4446513   -2.4446513   -1.2635852  0.068579808   -2.4446513    1.1810661  1645238 
   30000    1.0080452   -2.4446908   -2.4446908   -1.2637841  0.071353929   -2.4446908    1.1809067  1645211 
   31000    1.0082364   -2.4447448   -2.4447448   -1.2635947  0.069277804   -2.4447448    1.1811501  1645184 
   32000    1.0088687   -2.4453754   -2.4453754   -1.2634651   0.07487704   -2.4453754    1.1819103  1645157 
   33000    1.0082994   -2.4448745   -2.4448745   -1.2636118  0.070281844   -2.4448745    1.1812628  1645130 
   34000    1.0083056   -2.4447279   -2.4447279   -1.2634386   0.07036382   -2.4447279    1.1812893  1645103 
   35000    1.0088189   -2.4455393   -2.4455393   -1.2636292   0.06834622   -2.4455393    1.1819101  1645076 
   36000    1.0079826   -2.4447794   -2.4447794   -1.2638296  0.071341739   -2.4447794    1.1809498  1645049 
   37000    1.0083462   -2.4453845   -2.4453845   -1.2639886  0.067936334   -2.4453845    1.1813958  1645021 
   38000    1.0086788    -2.445657    -2.445657   -1.2638521  0.071496781    -2.445657    1.1818049  1644994 
   39000    1.0077646   -2.4444206   -2.4444206   -1.2636675  0.072139282   -2.4444206    1.1807532  1644967 
   40000      1.00774   -2.4447118   -2.4447118   -1.2639681  0.067889134   -2.4447118    1.1807438  1644940 
   41000    1.0084181   -2.4455727   -2.4455727   -1.2640151  0.070173863   -2.4455727    1.1815576  1644913 
   42000    1.0086951   -2.4455409   -2.4455409   -1.2636393  0.067300419   -2.4455409    1.1819016  1644886 
   43000     1.008248   -2.4452342   -2.4452342   -1.2638372   0.06996412   -2.4452342    1.1813971  1644859 
   44000    1.0074481   -2.4445005   -2.4445005   -1.2640212  0.069994449   -2.4445005    1.1804792  1644832 
   45000    1.0074234   -2.4444533   -2.4444533   -1.2639837  0.070373817   -2.4444533    1.1804696  1644805 
   46000    1.0085364    -2.445988    -2.445988   -1.2641948  0.069904977    -2.445988    1.1817932  1644778 
   47000    1.0082815   -2.4453227   -2.4453227   -1.2638088  0.066411951   -2.4453227    1.1815139  1644751 
   48000    1.0079766     -2.44563     -2.44563    -1.264454  0.069992904     -2.44563     1.181176  1644724 
   49000    1.0071443   -2.4441499   -2.4441499   -1.2639298  0.071814503   -2.4441499    1.1802201  1644697 
   50000    1.0080867   -2.4448637   -2.4448637   -1.2635198  0.068182903   -2.4448637    1.1813439  1644670 
   51000    1.0083371   -2.4445031   -2.4445031   -1.2628465  0.070467913   -2.4445031    1.1816566  1644643 
   52000    1.0076902   -2.4447382   -2.4447382   -1.2638202  0.071903002   -2.4447382     1.180918  1644616 
   53000    1.0076571   -2.4441505   -2.4441505   -1.2632519  0.072594521   -2.4441505    1.1808985  1644589 
   54000    1.0075319   -2.4437793   -2.4437793   -1.2630081  0.070003367   -2.4437793    1.1807712  1644562 
   55000    1.0078357   -2.4436925   -2.4436925   -1.2625458  0.067479443   -2.4436925    1.1811467  1644535 
   56000     1.007892   -2.4437569   -2.4437569   -1.2625249  0.067689248   -2.4437569     1.181232  1644508 
   57000    1.0070117   -2.4430601   -2.4430601   -1.2628404  0.071780828   -2.4430601    1.1802197  1644481 
   58000    1.0074671   -2.4434022   -2.4434022   -1.2626294   0.06825514   -2.4434022    1.1807728  1644454 
   59000    1.0078096   -2.4437225   -2.4437225   -1.2625289    0.0727675   -2.4437225    1.1811936  1644427 
   60000    1.0072982   -2.4428729   -2.4428729   -1.2622592   0.07210653   -2.4428729    1.1806137  1644400 
   61000    1.0069189   -2.4427548   -2.4427548   -1.2625663  0.071136663   -2.4427548    1.1801885  1644373 
   62000    1.0095864   -2.4447867   -2.4447867   -1.2614523  0.069373311   -2.4447867    1.1833344  1644346 
   63000    1.0087208   -2.4438946   -2.4438946   -1.2615553  0.071555755   -2.4438946    1.1823393  1644319 
   64000    1.0091169   -2.4444903   -2.4444903   -1.2616674  0.068972601   -2.4444903    1.1828229  1644292 
   65000    1.0085336   -2.4433789   -2.4433789   -1.2612202  0.072960123   -2.4433789    1.1821587  1644265 
   66000    1.0087757    -2.443712    -2.443712   -1.2612501  0.069130493    -2.443712    1.1824619  1644238 
   67000    1.0087842   -2.4441871   -2.4441871   -1.2616959  0.069886203   -2.4441871    1.1824912  1644211 
   68000    1.0084389   -2.4440643   -2.4440643   -1.2619583  0.066434988   -2.4440643    1.1821059  1644184 
   69000    1.0073323     -2.44282     -2.44282   -1.2619918  0.067327329     -2.44282    1.1808282  1644157 
   70000    1.0072015   -2.4422104   -2.4422104   -1.2615162  0.069198175   -2.4422104    1.1806942  1644130 
   71000    1.0082635   -2.4436144   -2.4436144   -1.2616558  0.070571923   -2.4436144    1.1819585  1644103 
   72000    1.0075351    -2.442577    -2.442577    -1.261453    0.0706345    -2.442577     1.181124  1644076 
   73000    1.0080015   -2.4426397   -2.4426397   -1.2609496  0.070441124   -2.4426397    1.1816902  1644049 
   74000    1.0075262   -2.4424448   -2.4424448   -1.2612917  0.070950195   -2.4424448    1.1811531  1644021 
   75000    1.0076178   -2.4422614   -2.4422614   -1.2609816  0.070388582   -2.4422614    1.1812798  1643994 
   76000     1.008161   -2.4423521   -2.4423521   -1.2604159  0.071607209   -2.4423521    1.1819361  1643967 
   77000    1.0077705   -2.4417704   -2.4417704   -1.2602726  0.070125929   -2.4417704    1.1814977  1643940 
   78000    1.0079341   -2.4416009   -2.4416009    -1.259892  0.073101415   -2.4416009    1.1817089  1643913 
   79000    1.0088139   -2.4427645   -2.4427645   -1.2600047  0.068275771   -2.4427645    1.1827598  1643886 
   80000    1.0076663   -2.4412417   -2.4412417   -1.2598079  0.073103422   -2.4412417    1.1814338  1643859 
   81000    1.0082666   -2.4419799   -2.4419799   -1.2598229  0.067976118   -2.4419799     1.182157  1643832 
   82000    1.0078688   -2.4415978   -2.4415978   -1.2598878  0.069128135   -2.4415978      1.18171  1643805 
   83000    1.0079316   -2.4417033   -2.4417033   -1.2599003  0.071312422   -2.4417033    1.1818031  1643778 
   84000    1.0078922   -2.4415519   -2.4415519   -1.2597756  0.069748166   -2.4415519    1.1817762  1643751 
   85000    1.0093158   -2.4430914   -2.4430914   -1.2596265  0.069954638   -2.4430914    1.1834649  1643724 
   86000    1.0077578   -2.4405979   -2.4405979   -1.2589403  0.070057977   -2.4405979    1.1816575  1643697 
   87000    1.0075959   -2.4405714   -2.4405714   -1.2590843  0.072298281   -2.4405714    1.1814871  1643670 
   88000    1.0079549   -2.4411226   -2.4411226   -1.2591953  0.068551284   -2.4411226    1.1819274  1643643 
   89000    1.0081739   -2.4416134   -2.4416134   -1.2594097  0.069821881   -2.4416134    1.1822037  1643616 
   90000    1.0080872    -2.441154    -2.441154   -1.2590325  0.071404496    -2.441154    1.1821215  1643589 
   91000    1.0077357    -2.440696    -2.440696   -1.2589674  0.069512393    -2.440696    1.1817286  1643562 
   92000    1.0081703   -2.4420284   -2.4420284   -1.2597707  0.070898199   -2.4420284    1.1822577  1643535 
   93000    1.0076183    -2.441575    -2.441575   -1.2599452  0.071542554    -2.441575    1.1816298  1643508 
   94000    1.0073085   -2.4412775   -2.4412775   -1.2599916  0.068132927   -2.4412775    1.1812859  1643481 
   95000     1.007071   -2.4409358   -2.4409358    -1.259909  0.068359424   -2.4409358    1.1810268  1643454 
   96000    1.0070355   -2.4408871   -2.4408871   -1.2598826  0.067105833   -2.4408871    1.1810046  1643427 
   97000    1.0071339   -2.4408763   -2.4408763   -1.2597369  0.070058248   -2.4408763    1.1811394  1643400 
   98000    1.0067823   -2.4405492   -2.4405492   -1.2598028  0.066531023   -2.4405492    1.1807464  1643373 
   99000    1.0071929   -2.4404164   -2.4404164    -1.259169  0.069214861   -2.4404164    1.1812474  1643346 
  100000     1.006737   -2.4397257   -2.4397257   -1.2589936  0.071465569   -2.4397257     1.180732  1643319 
  101000     1.007067   -2.4399703   -2.4399703   -1.2588317  0.069815714   -2.4399703    1.1811385  1643292 
  102000    1.0069431   -2.4398595   -2.4398595    -1.258847  0.070085875   -2.4398595    1.1810125  1643265 
  103000    1.0077269   -2.4410126   -2.4410126   -1.2590612  0.073056721   -2.4410126    1.1819514  1643238 
  104000    1.0064383   -2.4392768   -2.4392768   -1.2588175  0.067224341   -2.4392768    1.1804593  1643211 
  105000    1.0068189   -2.4398893   -2.4398893   -1.2589641  0.069138092   -2.4398893    1.1809252  1643184 
  106000    1.0074405   -2.4402088   -2.4402088   -1.2585351  0.071679208   -2.4402088    1.1816737  1643157 
  107000    1.0073811   -2.4403266   -2.4403266   -1.2587032  0.072472191   -2.4403266    1.1816234  1643130 
  108000    1.0074497   -2.4402271   -2.4402271   -1.2585038  0.072474392   -2.4402271    1.1817233  1643103 
  109000    1.0080364   -2.4413709   -2.4413709     -1.25894  0.072442761   -2.4413709    1.1824309  1643076 
  110000    1.0083981   -2.4417326   -2.4417326   -1.2588579  0.070979482   -2.4417326    1.1828746  1643049 
  111000    1.0070174   -2.4403768   -2.4403768   -1.2591016   0.06947163   -2.4403768    1.1812752  1643021 
  112000    1.0070767   -2.4402544   -2.4402544   -1.2588903  0.071654638   -2.4402544    1.1813642  1642994 
  113000    1.0075125   -2.4403294   -2.4403294   -1.2584346   0.06924482   -2.4403294    1.1818948  1642967 
  114000    1.0071067   -2.4401059   -2.4401059   -1.2586677  0.072442752   -2.4401059    1.1814382  1642940 
  115000    1.0072371   -2.4398291   -2.4398291   -1.2582186   0.07398047   -2.4398291    1.1816105  1642913 
  116000    1.0067618   -2.4395479   -2.4395479   -1.2584755  0.071655502   -2.4395479    1.1810724  1642886 
  117000    1.0068584   -2.4396314   -2.4396314   -1.2584263  0.072627606   -2.4396314    1.1812051  1642859 
  118000    1.0071191    -2.440302    -2.440302   -1.2587716  0.070668141    -2.440302    1.1815304  1642832 
  119000    1.0074639   -2.4403119   -2.4403119   -1.2583576  0.070627439   -2.4403119    1.1819543  1642805 
  120000    1.0075628   -2.4407025   -2.4407025   -1.2586127   0.06895498   -2.4407025    1.1820898  1642778 
  121000      1.00764   -2.4403405   -2.4403405   -1.2581406  0.068514106   -2.4403405    1.1821998  1642751 
  122000    1.0069454    -2.439673    -2.439673   -1.2582688  0.071742603    -2.439673    1.1814042  1642724 
  123000     1.006823   -2.4400882   -2.4400882   -1.2588082  0.070135561   -2.4400882    1.1812801  1642697 
  124000    1.0070573   -2.4401669   -2.4401669   -1.2585925  0.070873832   -2.4401669    1.1815744  1642670 
  125000    1.0063523   -2.4402076   -2.4402076    -1.259441  0.070446453   -2.4402076    1.1807667  1642643 
  126000     1.006448   -2.4406572   -2.4406572   -1.2597589  0.068071611   -2.4406572    1.1808983  1642616 
  127000    1.0063576   -2.4401491   -2.4401491   -1.2593375  0.070248081   -2.4401491    1.1808116  1642589 
  128000    1.0058737   -2.4400055   -2.4400055   -1.2597422  0.067466931   -2.4400055    1.1802633  1642562 
  129000    1.0059722   -2.4398552   -2.4398552    -1.259457  0.069962334   -2.4398552    1.1803982  1642535 
  130000    1.0064503   -2.4402438   -2.4402438   -1.2592652  0.074966076   -2.4402438    1.1809786  1642508 
  131000    1.0066863   -2.4402849   -2.4402849   -1.2590099  0.068296135   -2.4402849     1.181275  1642481 
  132000        1.006   -2.4395566   -2.4395566   -1.2590675  0.068494244   -2.4395566    1.1804891  1642454 
  133000     1.006434   -2.4404183   -2.4404183   -1.2594005  0.069104922   -2.4404183    1.1810178  1642427 
  134000    1.0066724   -2.4404975   -2.4404975   -1.2591806  0.068219271   -2.4404975    1.1813169  1642400 
  135000    1.0070944   -2.4412222   -2.4412222   -1.2593907  0.072613231   -2.4412222    1.1818316  1642373 
  136000    1.0063581   -2.4400632   -2.4400632   -1.2590763  0.070881826   -2.4400632    1.1809869  1642346 
  137000     1.006071   -2.4398073   -2.4398073   -1.2591379  0.068225204   -2.4398073    1.1806694  1642319 
  138000    1.0062921   -2.4397466   -2.4397466   -1.2587982  0.071876101   -2.4397466    1.1809483  1642292 
  139000    1.0072451    -2.441043    -2.441043   -1.2589568  0.068654872    -2.441043    1.1820862  1642265 
  140000    1.0055097   -2.4388266   -2.4388266   -1.2587577  0.071482228   -2.4388266    1.1800689  1642238 
  141000    1.0067115   -2.4398446   -2.4398446   -1.2583458  0.072746965   -2.4398446    1.1814988  1642211 
  142000    1.0066802   -2.4395085   -2.4395085   -1.2580271  0.066505606   -2.4395085    1.1814815  1642184 
  143000    1.0075789   -2.4403631   -2.4403631   -1.2578074  0.069932831   -2.4403631    1.1825557  1642157 
  144000    1.0072113   -2.4400914   -2.4400914   -1.2579477  0.073500565   -2.4400914    1.1821437  1642130 
  145000    1.0077809   -2.4410103   -2.4410103   -1.2581787   0.06728726   -2.4410103    1.1828316  1642103 
  146000    1.0062994   -2.4395319   -2.4395319   -1.2584196   0.07064371   -2.4395319    1.1811123  1642076 
  147000    1.0059028   -2.4390852   -2.4390852   -1.2584189   0.06909794   -2.4390852    1.1806662  1642049 
  148000    1.0062098   -2.4392741   -2.4392741   -1.2582275  0.066703323   -2.4392741    1.1810467  1642021 
  149000    1.0052446   -2.4384354   -2.4384354   -1.2585023  0.071032697   -2.4384354    1.1799331  1641994 
  150000    1.0057053   -2.4389478   -2.4389478   -1.2584546  0.067546305   -2.4389478    1.1804932  1641967 
  151000    1.0052307   -2.4384459   -2.4384459   -1.2584903  0.069672665   -2.4384459    1.1799557  1641940 
  152000    1.0051788   -2.4386493   -2.4386493   -1.2587353  0.066343326   -2.4386493    1.1799141  1641913 
  153000     1.006305   -2.4398075   -2.4398075    -1.258552  0.068837187   -2.4398075    1.1812555  1641886 
  154000     1.006402   -2.4405558   -2.4405558   -1.2591671  0.069182197   -2.4405558    1.1813888  1641859 
  155000    1.0045716   -2.4385795   -2.4385795     -1.25932  0.068850742   -2.4385795    1.1792595  1641832 
  156000    1.0043293   -2.4381874   -2.4381874    -1.259193   0.06872213   -2.4381874    1.1789944  1641805 
  157000    1.0052164    -2.438444    -2.438444   -1.2583887  0.070099182    -2.438444    1.1800553  1641778 
  158000    1.0059258   -2.4387427   -2.4387427   -1.2578353  0.066976606   -2.4387427    1.1809075  1641751 
  159000    1.0057872   -2.4387209   -2.4387209   -1.2579567  0.072308954   -2.4387209    1.1807642  1641724 
  160000    1.0055628   -2.4385476   -2.4385476   -1.2580275  0.068947522   -2.4385476    1.1805201  1641697 
  161000    1.0058472   -2.4388688   -2.4388688   -1.2579954  0.069586988   -2.4388688    1.1808734  1641670 
  162000    1.0059289   -2.4387294   -2.4387294   -1.2577405   0.06854108   -2.4387294    1.1809888  1641643 
  163000    1.0057724   -2.4385121   -2.4385121   -1.2576877   0.06875442   -2.4385121    1.1808245  1641616 
  164000    1.0053418   -2.4379999   -2.4379999   -1.2576616  0.070886292   -2.4379999    1.1803384  1641589 
  165000    1.0064083   -2.4395715   -2.4395715   -1.2579615  0.070686529   -2.4395715    1.1816099  1641562 
  166000    1.0046436   -2.4372922   -2.4372922   -1.2577347   0.07086709   -2.4372922    1.1795575  1641535 
  167000    1.0048628    -2.437429    -2.437429   -1.2575948  0.071198416    -2.437429    1.1798342  1641508 
  168000    1.0058459   -2.4387041   -2.4387041   -1.2576962  0.069167557   -2.4387041    1.1810079  1641481 
  169000    1.0049467   -2.4377691   -2.4377691   -1.2577976  0.075742412   -2.4377691    1.1799715  1641454 
  170000    1.0057859   -2.4390826   -2.4390826   -1.2581062  0.067668662   -2.4390826    1.1809763  1641427 
  171000    1.0059517   -2.4390468   -2.4390468   -1.2578565  0.071042909   -2.4390468    1.1811904  1641400 
  172000    1.0051911   -2.4387065   -2.4387065   -1.2583898  0.071670288   -2.4387065    1.1803167  1641373 
  173000    1.0052158   -2.4380684   -2.4380684   -1.2577032  0.070029774   -2.4380684    1.1803652  1641346 
  174000     1.005004   -2.4377332   -2.4377332   -1.2575974  0.067601488   -2.4377332    1.1801358  1641319 
  175000    1.0047629   -2.4374901   -2.4374901   -1.2576179   0.06549458   -2.4374901    1.1798722  1641292 
  176000     1.005601   -2.4380383   -2.4380383   -1.2571625  0.070443868   -2.4380383    1.1808758  1641265 
  177000    1.0058348   -2.4382949   -2.4382949   -1.2571252  0.070186887   -2.4382949    1.1811697  1641238 
  178000    1.0050113   -2.4372409   -2.4372409   -1.2570189  0.069900647   -2.4372409    1.1802221  1641211 
  179000    1.0054064   -2.4375777   -2.4375777   -1.2568722  0.068295344   -2.4375777    1.1807055  1641184 
  180000    1.0056035   -2.4377373   -2.4377373   -1.2567809  0.070945751   -2.4377373    1.1809564  1641157 
  181000    1.0053004   -2.4377112   -2.4377112   -1.2570914  0.072586568   -2.4377112    1.1806198  1641130 
  182000     1.005119   -2.4375614   -2.4375614   -1.2571352  0.073360592   -2.4375614    1.1804262  1641103 
  183000    1.0063896   -2.4383115   -2.4383115   -1.2563735  0.073383516   -2.4383115    1.1819379  1641076 
  184000    1.0061267   -2.4385131   -2.4385131   -1.2568646  0.069992936   -2.4385131    1.1816486  1641049 
  185000    1.0050008   -2.4374261   -2.4374261   -1.2570797  0.070622432   -2.4374261    1.1803464  1641021 
  186000    1.0057916   -2.4381935   -2.4381935   -1.2568989   0.06869199   -2.4381935    1.1812946  1640994 
  187000      1.00664   -2.4392419   -2.4392419   -1.2569314   0.07005196   -2.4392419    1.1823104  1640967 
  188000    1.0063644   -2.4390017   -2.4390017   -1.2569954   0.07008247   -2.4390017    1.1820062  1640940 
  189000     1.004931   -2.4376703   -2.4376703   -1.2573282  0.069025821   -2.4376703    1.1803421  1640913 
  190000    1.0065735   -2.4395525   -2.4395525   -1.2572618  0.067718579   -2.4395525    1.1822907  1640886 
  191000    1.0058167   -2.4386403   -2.4386403   -1.2572191  0.070160363   -2.4386403    1.1814212  1640859 
  192000    1.0049731   -2.4379936   -2.4379936   -1.2575438   0.07273066   -2.4379936    1.1804498  1640832 
  193000    1.0054799   -2.4393769   -2.4393769   -1.2583123  0.069874717   -2.4393769    1.1810646  1640805 
  194000     1.005194   -2.4382674   -2.4382674   -1.2575192  0.071458902   -2.4382674    1.1807481  1640778 
  195000    1.0059668   -2.4391971   -2.4391971   -1.2575218  0.063867729   -2.4391971    1.1816753  1640751 
  196000    1.0049431    -2.438593    -2.438593   -1.2581007  0.069185912    -2.438593    1.1804923  1640724 
  197000    1.0048139   -2.4382773   -2.4382773   -1.2579173   0.07253592   -2.4382773      1.18036  1640697 
  198000    1.0056432   -2.4392141   -2.4392141   -1.2578606  0.070355105   -2.4392141    1.1813535  1640670 
  199000    1.0057393   -2.4393047   -2.4393047   -1.2578189  0.072863618   -2.4393047    1.1814858  1640643 
  200000    1.0052142   -2.4383556   -2.4383556   -1.2574671  0.072569554   -2.4383556    1.1808885  1640616 
  201000    1.0054716    -2.439014    -2.439014   -1.2578037  0.070672111    -2.439014    1.1812102  1640589 
  202000    1.0049802   -2.4381902   -2.4381902   -1.2575378  0.069652642   -2.4381902    1.1806525  1640562 
  203000    1.0053668   -2.4382204   -2.4382204   -1.2570943  0.068857086   -2.4382204    1.1811261  1640535 
  204000    1.0045907   -2.4372223   -2.4372223   -1.2569886  0.070110893   -2.4372223    1.1802337  1640508 
  205000      1.00507   -2.4377923   -2.4377923   -1.2569761  0.070467298   -2.4377923    1.1808162  1640481 
  206000    1.0042575   -2.4372455   -2.4372455   -1.2573645  0.069522769   -2.4372455     1.179881  1640454 
  207000    1.0051702   -2.4383921   -2.4383921   -1.2574192  0.067858372   -2.4383921    1.1809728  1640427 
  208000    1.0038994   -2.4362495   -2.4362495   -1.2567503  0.073342639   -2.4362495    1.1794992  1640400 
  209000    1.0050301   -2.4374483   -2.4374483   -1.2566012   0.07159635   -2.4374483     1.180847  1640373 
  210000     1.005151   -2.4378005   -2.4378005   -1.2567919  0.068822437   -2.4378005    1.1810085  1640346 
  211000    1.0044964   -2.4369563   -2.4369563   -1.2566974  0.072266455   -2.4369563    1.1802589  1640319 
  212000    1.0060682   -2.4388615   -2.4388615   -1.2567363  0.066877125   -2.4388615    1.1821252  1640292 
  213000    1.0049465   -2.4376515   -2.4376515   -1.2568249  0.070091272   -2.4376515    1.1808266  1640265 
  214000    1.0053596   -2.4379023   -2.4379023   -1.2565708   0.06887839   -2.4379023    1.1813315  1640238 
  215000    1.0049765   -2.4371712   -2.4371712   -1.2562705  0.072327317   -2.4371712    1.1809007  1640211 
  216000    1.0048023   -2.4366288   -2.4366288   -1.2559133  0.074169795   -2.4366288    1.1807155  1640184 
  217000    1.0047577   -2.4368721   -2.4368721   -1.2561896  0.071458611   -2.4368721    1.1806825  1640157 
  218000    1.0058641    -2.438142    -2.438142   -1.2561399  0.068808356    -2.438142     1.182002  1640130 
  219000    1.0040655   -2.4363251   -2.4363251   -1.2564172  0.066558521   -2.4363251    1.1799079  1640103 
  220000    1.0048258    -2.436485    -2.436485   -1.2556642   0.07213541    -2.436485    1.1808209  1640076 
  221000    1.0049777   -2.4363179   -2.4363179   -1.2552991   0.06948086   -2.4363179    1.1810188  1640049 
  222000    1.0046034   -2.4361169   -2.4361169   -1.2555177  0.069988846   -2.4361169    1.1805991  1640021 
  223000    1.0046405   -2.4364234   -2.4364234   -1.2557613  0.067788797   -2.4364234    1.1806621  1639994 
  224000    1.0052605   -2.4366001   -2.4366001   -1.2551899  0.071654303   -2.4366001    1.1814102  1639967 
  225000    1.0048735   -2.4359919   -2.4359919   -1.2550171  0.068513396   -2.4359919    1.1809748  1639940 
  226000    1.0050594   -2.4363893   -2.4363893   -1.2551765  0.071372163   -2.4363893    1.1812128  1639913 
  227000    1.0057118   -2.4374573   -2.4374573   -1.2554584  0.072093137   -2.4374573    1.1819989  1639886 
  228000    1.0057354   -2.4369183   -2.4369183   -1.2548722  0.071864474   -2.4369183    1.1820461  1639859 
  229000     1.005096   -2.4363115   -2.4363115   -1.2549973  0.071883264   -2.4363115    1.1813142  1639832 
  230000    1.0055886   -2.4368219   -2.4368219   -1.2549093  0.072370333   -2.4368219    1.1819126  1639805 
  231000    1.0048076   -2.4363073   -2.4363073   -1.2552932  0.069402952   -2.4363073    1.1810141  1639778 
  232000    1.0046773   -2.4362475   -2.4362475   -1.2553671  0.068769095   -2.4362475    1.1808803  1639751 
  233000     1.005189   -2.4368616   -2.4368616   -1.2553603  0.068531027   -2.4368616    1.1815013  1639724 
  234000    1.0041394   -2.4360225   -2.4360225   -1.2557355  0.069084973   -2.4360225     1.180287  1639697 
  235000    1.0042517   -2.4358705   -2.4358705    -1.255432  0.068286531   -2.4358705    1.1804385  1639670 
  236000    1.0043161   -2.4362302   -2.4362302   -1.2556967  0.067919342   -2.4362302    1.1805335  1639643 
  237000    1.0038285   -2.4351318   -2.4351318    -1.255152  0.064631451   -2.4351318    1.1799799  1639616 
  238000    1.0039349   -2.4354061   -2.4354061   -1.2552818  0.068082393   -2.4354061    1.1801243  1639589 
  239000    1.0039851   -2.4349591   -2.4349591   -1.2547564    0.0690844   -2.4349591    1.1802027  1639562 
  240000    1.0038423   -2.4352449   -2.4352449   -1.2551906  0.068807517   -2.4352449    1.1800543  1639535 
  241000    1.0050026   -2.4356771   -2.4356771   -1.2542393  0.071201306   -2.4356771    1.1814378  1639508 
  242000    1.0046604   -2.4352795   -2.4352795   -1.2542245  0.071631928   -2.4352795    1.1810549  1639481 
  243000    1.0040717   -2.4349898   -2.4349898   -1.2546075  0.071861035   -2.4349898    1.1803823  1639454 
  244000    1.0044126   -2.4355171   -2.4355171   -1.2547146  0.071096055   -2.4355171    1.1808025  1639427 
  245000    1.0042083   -2.4356033   -2.4356033   -1.2550215  0.071733149   -2.4356033    1.1805818  1639400 
  246000    1.0049833   -2.4362858   -2.4362858   -1.2547733  0.070201224   -2.4362858    1.1815124  1639373 
  247000      1.00419   -2.4355432   -2.4355432    -1.254944  0.069177872   -2.4355432    1.1805992  1639346 
  248000    1.0045223   -2.4358456   -2.4358456   -1.2548363  0.070154043   -2.4358456    1.1810093  1639319 
  249000    1.0038145   -2.4350217   -2.4350217    -1.254825  0.072017385   -2.4350217    1.1801966  1639292 
  250000    1.0048996   -2.4363027   -2.4363027   -1.2548108  0.067796601   -2.4363027    1.1814919  1639265 
  251000    1.0052193    -2.436463    -2.436463   -1.2545759  0.069806583    -2.436463    1.1818871  1639238 
  252000     1.004958   -2.4364795   -2.4364795   -1.2548801  0.070648798   -2.4364795    1.1815994  1639211 
  253000    1.0046119   -2.4352408   -2.4352408   -1.2540288  0.069449383   -2.4352408     1.181212  1639184 
  254000    1.0047451   -2.4357259   -2.4357259   -1.2543379  0.069842894   -2.4357259     1.181388  1639157 
  255000    1.0048743   -2.4362794   -2.4362794   -1.2547201  0.072470855   -2.4362794    1.1815593  1639130 
  256000    1.0043884   -2.4354272   -2.4354272   -1.2544197  0.076350398   -2.4354272    1.1810075  1639103 
  257000    1.0044425   -2.4360433   -2.4360433   -1.2549528  0.072009199   -2.4360433    1.1810905  1639076 
  258000    1.0049931   -2.4366498   -2.4366498   -1.2548923  0.069762844   -2.4366498    1.1817575  1639049 
  259000    1.0052894   -2.4369164   -2.4369164   -1.2547904  0.066605626   -2.4369164     1.182126  1639021 
  260000    1.0042916   -2.4355981   -2.4355981   -1.2546259  0.069134868   -2.4355981    1.1809722  1638994 
  261000    1.0037395    -2.435218    -2.435218   -1.2548755   0.07321027    -2.435218    1.1803425  1638967 
  262000     1.003997   -2.4357874   -2.4357874   -1.2551227  0.066264889   -2.4357874    1.1806647  1638940 
  263000    1.0037916   -2.4353753   -2.4353753   -1.2549327  0.070658214   -2.4353753    1.1804426  1638913 
  264000    1.0047548   -2.4367513   -2.4367513   -1.2551565  0.069343505   -2.4367513    1.1815948  1638886 
  265000    1.0027381   -2.4347519   -2.4347519   -1.2555093  0.070950762   -2.4347519    1.1792426  1638859 
  266000     1.003363   -2.4354927   -2.4354927   -1.2554959  0.067136287   -2.4354927    1.1799968  1638832 
  267000    1.0032132   -2.4351249   -2.4351249   -1.2552847  0.070650558   -2.4351249    1.1798402  1638805 
  268000    1.0034721   -2.4353712   -2.4353712   -1.2552072  0.068822107   -2.4353712     1.180164  1638778 
  269000    1.0024497   -2.4343211   -2.4343211     -1.25534  0.068428493   -2.4343211    1.1789811  1638751 
  270000    1.0035574   -2.4357038   -2.4357038   -1.2554005  0.067481706   -2.4357038    1.1803033  1638724 
  271000    1.0037573   -2.4357224   -2.4357224   -1.2551645  0.071019765   -2.4357224    1.1805579  1638697 
  272000    1.0043644   -2.4362041   -2.4362041   -1.2549128  0.069447982   -2.4362041    1.1812913  1638670 
  273000    1.0046411   -2.4360376   -2.4360376   -1.2544014  0.072438636   -2.4360376    1.1816362  1638643 
  274000    1.0046371   -2.4359971   -2.4359971   -1.2543461   0.07185686   -2.4359971     1.181651  1638616 
  275000    1.0050408   -2.4360807   -2.4360807   -1.2539354  0.070313111   -2.4360807    1.1821453  1638589 
  276000    1.0045822   -2.4355878   -2.4355878   -1.2539624  0.070819884   -2.4355878    1.1816254  1638562 
  277000    1.0045766    -2.435688    -2.435688   -1.2540497  0.069672062    -2.435688    1.1816383  1638535 
  278000    1.0055317    -2.436489    -2.436489   -1.2537079  0.072135792    -2.436489    1.1827811  1638508 
  279000    1.0051069   -2.4357814   -2.4357814   -1.2534803  0.070856453   -2.4357814     1.182301  1638481 
  280000    1.0057119   -2.4361747   -2.4361747   -1.2531426  0.070135815   -2.4361747    1.1830321  1638454 
  281000     1.005061    -2.435365    -2.435365   -1.2530791  0.074599301    -2.435365    1.1822859  1638427 
  282000    1.0044406   -2.4347484   -2.4347484   -1.2531728  0.074295813   -2.4347484    1.1815756  1638400 
  283000    1.0059271   -2.4361108   -2.4361108    -1.252767  0.072174936   -2.4361108    1.1833438  1638373 
  284000     1.004743   -2.4346698   -2.4346698   -1.2526994  0.073844631   -2.4346698    1.1819704  1638346 
  285000    1.0043002   -2.4344406   -2.4344406   -1.2529718   0.07301297   -2.4344406    1.1814688  1638319 
  286000    1.0038516   -2.4339474   -2.4339474   -1.2529868  0.073805253   -2.4339474    1.1809606  1638292 
  287000    1.0037021   -2.4338293   -2.4338293   -1.2530251  0.066887753   -2.4338293    1.1808042  1638265 
  288000    1.0033173   -2.4334761   -2.4334761   -1.2531051  0.068974824   -2.4334761     1.180371  1638238 
  289000    1.0030759   -2.4331558   -2.4331558   -1.2530494  0.073128152   -2.4331558    1.1801064  1638211 
  290000    1.0039718   -2.4341938   -2.4341938   -1.2530139  0.070703535   -2.4341938    1.1811799  1638184 
  291000     1.003591   -2.4340859   -2.4340859   -1.2533345  0.067414664   -2.4340859    1.1807514  1638157 
  292000    1.0024377   -2.4333658   -2.4333658   -1.2539519  0.068800606   -2.4333658    1.1794139  1638130 
  293000    1.0030346   -2.4341633   -2.4341633   -1.2540278  0.071410454   -2.4341633    1.1801356  1638103 
  294000    1.0027948   -2.4338652   -2.4338652   -1.2539923  0.069300565   -2.4338652    1.1798729  1638076 
  295000    1.0023472   -2.4330254   -2.4330254   -1.2536597  0.069348665   -2.4330254    1.1793657  1638049 
  296000    1.0017747   -2.4326503   -2.4326503   -1.2539379   0.06808285   -2.4326503    1.1787123  1638021 
  297000    1.0029012   -2.4346133   -2.4346133    -1.254556  0.066978463   -2.4346133    1.1800572  1637994 
  298000    1.0033407   -2.4346013   -2.4346013   -1.2540075  0.069188253   -2.4346013    1.1805938  1637967 
  299000    1.0026276   -2.4336834   -2.4336834   -1.2539092  0.068233224   -2.4336834    1.1797742  1637940 
  300000    1.0036234   -2.4345136   -2.4345136   -1.2535482  0.068563177   -2.4345136    1.1809654  1637913 
  301000    1.0030683   -2.4337347   -2.4337347   -1.2534032  0.070378635   -2.4337347    1.1803316  1637886 
  302000    1.0027511   -2.4333224   -2.4333224   -1.2533446  0.069459732   -2.4333224    1.1799779  1637859 
  303000    1.0024067   -2.4325931   -2.4325931   -1.2530011  0.067381763   -2.4325931     1.179592  1637832 
  304000    1.0032699   -2.4332896   -2.4332896   -1.2526624  0.070484357   -2.4332896    1.1806272  1637805 
  305000    1.0035944   -2.4334423   -2.4334423   -1.2524138  0.069203376   -2.4334423    1.1810285  1637778 
  306000    1.0037207   -2.4336323   -2.4336323   -1.2524356  0.071060192   -2.4336323    1.1811966  1637751 
  307000    1.0038038   -2.4335912   -2.4335912   -1.2522772  0.070334175   -2.4335912    1.1813139  1637724 
  308000    1.0031328   -2.4325343   -2.4325343   -1.2519905   0.06766773   -2.4325343    1.1805438  1637697 
  309000    1.0031886   -2.4324136   -2.4324136   -1.2517847   0.06864217   -2.4324136    1.1806289  1637670 
  310000    1.0036402   -2.4331071   -2.4331071   -1.2519273  0.071613482   -2.4331071    1.1811799  1637643 
  311000     1.003649    -2.433472    -2.433472   -1.2522623  0.069447697    -2.433472    1.1812096  1637616 
  312000    1.0036519   -2.4337225   -2.4337225     -1.25249  0.071801651   -2.4337225    1.1812325  1637589 
  313000    1.0031889    -2.432861    -2.432861   -1.2521539  0.068039192    -2.432861    1.1807071  1637562 
  314000    1.0035017   -2.4333261   -2.4333261   -1.2522314  0.071362725   -2.4333261    1.1810947  1637535 
  315000    1.0037563   -2.4336558   -2.4336558   -1.2522419    0.0721809   -2.4336558    1.1814139  1637508 
  316000    1.0034338   -2.4328855   -2.4328855   -1.2518317  0.070286738   -2.4328855    1.1810538  1637481 
  317000    1.0033542   -2.4330824   -2.4330824   -1.2521029  0.070540246   -2.4330824    1.1809795  1637454 
  318000    1.0034946   -2.4337247   -2.4337247   -1.2525605  0.070737249   -2.4337247    1.1811643  1637427 
  319000    1.0030326    -2.432899    -2.432899   -1.2522591  0.068281736    -2.432899      1.18064  1637400 
  320000    1.0037087   -2.4334918   -2.4334918   -1.2520366  0.066695724   -2.4334918    1.1814553  1637373 
  321000    1.0026719   -2.4321532   -2.4321532   -1.2518988  0.069207865   -2.4321532    1.1802543  1637346 
  322000    1.0031051   -2.4326106   -2.4326106   -1.2518268  0.068339947   -2.4326106    1.1807837  1637319 
  323000    1.0023127   -2.4317495   -2.4317495   -1.2518791  0.070380597   -2.4317495    1.1798704  1637292 
  324000    1.0029973   -2.4323509   -2.4323509   -1.2516552   0.07079267   -2.4323509    1.1806957  1637265 
  325000    1.0024187   -2.4319418   -2.4319418   -1.2519077  0.073462249   -2.4319418    1.1800341  1637238 
  326000    1.0024356   -2.4321853   -2.4321853   -1.2521119  0.068403517   -2.4321853    1.1800734  1637211 
  327000    1.0023565   -2.4323574   -2.4323574   -1.2523576  0.069181477   -2.4323574    1.1799998  1637184 
  328000    1.0029176   -2.4325058   -2.4325058    -1.251826  0.070825991   -2.4325058    1.1806798  1637157 
  329000     1.002466   -2.4320452   -2.4320452   -1.2518775  0.068172547   -2.4320452    1.1801676  1637130 
  330000    1.0023189   -2.4323714   -2.4323714   -1.2523574   0.06989838   -2.4323714     1.180014  1637103 
  331000    1.0026514   -2.4330171   -2.4330171   -1.2525923  0.069740388   -2.4330171    1.1804248  1637076 
  332000    1.0022645   -2.4322355   -2.4322355   -1.2522467  0.067867674   -2.4322355    1.1799888  1637049 
  333000    1.0031884    -2.433288    -2.433288   -1.2521913  0.066300526    -2.433288    1.1810967  1637021 
  334000    1.0028518   -2.4325587   -2.4325587   -1.2518388  0.065025227   -2.4325587    1.1807199  1636994 
  335000    1.0023005   -2.4316827   -2.4316827   -1.2515924  0.072190117   -2.4316827    1.1800903  1636967 
  336000    1.0025028   -2.4317744   -2.4317744   -1.2514265  0.070055356   -2.4317744    1.1803479  1636940 
  337000    1.0030526   -2.4324023   -2.4324023   -1.2513875  0.070554928   -2.4324023    1.1810148  1636913 
  338000    1.0026224   -2.4317051   -2.4317051   -1.2511775  0.073671482   -2.4317051    1.1805277  1636886 
  339000    1.0035832   -2.4324845   -2.4324845    -1.250806  0.071676201   -2.4324845    1.1816785  1636859 
  340000    1.0031554   -2.4320783   -2.4320783    -1.250884  0.069281084   -2.4320783    1.1811942  1636832 
  341000    1.0034454   -2.4322862   -2.4322862    -1.250731  0.070025204   -2.4322862    1.1815552  1636805 
  342000    1.0030114   -2.4312767   -2.4312767   -1.2502131  0.073502023   -2.4312767    1.1810636  1636778 
  343000    1.0035946   -2.4317578   -2.4317578   -1.2499879  0.073290164   -2.4317578    1.1817699  1636751 
  344000    1.0031809   -2.4311739   -2.4311739   -1.2498716  0.072493644   -2.4311739    1.1813023  1636724 
  345000    1.0035898   -2.4316354   -2.4316354   -1.2498323  0.073981693   -2.4316354    1.1818032  1636697 
  346000    1.0039724    -2.432377    -2.432377   -1.2501037  0.068544953    -2.432377    1.1822733  1636670 
  347000    1.0032265   -2.4317345   -2.4317345   -1.2503202  0.069819681   -2.4317345    1.1814143  1636643 
  348000    1.0030695   -2.4313965   -2.4313965   -1.2501475  0.074334386   -2.4313965     1.181249  1636616 
  349000    1.0037922   -2.4324874   -2.4324874   -1.2503679  0.071677146   -2.4324874    1.1821195  1636589 
  350000    1.0028233   -2.4316306   -2.4316306   -1.2506326  0.070759115   -2.4316306     1.180998  1636562 
  351000    1.0029222   -2.4309786   -2.4309786   -1.2498447  0.067703462   -2.4309786    1.1811339  1636535 
  352000     1.002129    -2.431064    -2.431064   -1.2508447  0.071554727    -2.431064    1.1802193  1636508 
  353000    1.0024723   -2.4312035   -2.4312035   -1.2505605  0.069604288   -2.4312035    1.1806431  1636481 
  354000     1.001927   -2.4307593   -2.4307593    -1.250739  0.069800163   -2.4307593    1.1800203  1636454 
  355000    1.0025837   -2.4318051   -2.4318051   -1.2509919  0.066609636   -2.4318051    1.1808132  1636427 
  356000    1.0022939   -2.4316228   -2.4316228   -1.2511315  0.069049088   -2.4316228    1.1804913  1636400 
  357000    1.0022632   -2.4315941   -2.4315941   -1.2511194  0.069519072   -2.4315941    1.1804747  1636373 
  358000    1.0023968   -2.4320563   -2.4320563   -1.2514047  0.071379057   -2.4320563    1.1806515  1636346 
  359000    1.0023112   -2.4315806   -2.4315806   -1.2510103  0.073183416   -2.4315806    1.1805702  1636319 
  360000    1.0029987   -2.4320796   -2.4320796   -1.2506802  0.070895254   -2.4320796    1.1813995  1636292 
  361000    1.0013681   -2.4301826   -2.4301826   -1.2506844  0.073405053   -2.4301826    1.1794982  1636265 
  362000    1.0024267   -2.4319133   -2.4319133   -1.2511486  0.067433883   -2.4319133    1.1807647  1636238 
  363000    1.0028771    -2.431954    -2.431954   -1.2506393  0.067390165    -2.431954    1.1813147  1636211 
  364000    1.0022419   -2.4307558   -2.4307558   -1.2501698  0.071402983   -2.4307558    1.1805859  1636184 
  365000    1.0024991    -2.431249    -2.431249   -1.2503405  0.068897627    -2.431249    1.1809085  1636157 
  366000     1.001879   -2.4304868   -2.4304868   -1.2502893  0.067847925   -2.4304868    1.1801975  1636130 
  367000    1.0021282   -2.4305991   -2.4305991   -1.2500886  0.069205199   -2.4305991    1.1805105  1636103 
  368000    1.0024056   -2.4303685   -2.4303685   -1.2495117  0.071408541   -2.4303685    1.1808568  1636076 
  369000    1.0027402   -2.4307338   -2.4307338   -1.2494633  0.067989707   -2.4307338    1.1812705  1636049 
  370000     1.002853   -2.4308927   -2.4308927   -1.2494692  0.067155715   -2.4308927    1.1814235  1636021 
  371000    1.0016899   -2.4295834   -2.4295834   -1.2495106  0.073448567   -2.4295834    1.1800728  1635994 
  372000     1.002687   -2.4308099   -2.4308099   -1.2495429  0.068664519   -2.4308099     1.181267  1635967 
  373000    1.0021637   -2.4297703   -2.4297703   -1.2491004  0.068757783   -2.4297703      1.18067  1635940 
  374000    1.0021917    -2.429249    -2.429249   -1.2485266  0.068576762    -2.429249    1.1807224  1635913 
  375000    1.0029119   -2.4295951   -2.4295951   -1.2480046  0.071235344   -2.4295951    1.1815904  1635886 
  376000    1.0026511   -2.4293537   -2.4293537    -1.248051  0.071610841   -2.4293537    1.1813027  1635859 
  377000    1.0018478   -2.4286804   -2.4286804   -1.2483046  0.071368701   -2.4286804    1.1803757  1635832 
  378000    1.0022347   -2.4287238   -2.4287238   -1.2478727  0.068166024   -2.4287238     1.180851  1635805 
  379000    1.0022672   -2.4291294   -2.4291294   -1.2482206  0.070063948   -2.4291294    1.1809088  1635778 
  380000    1.0013807   -2.4283973   -2.4283973   -1.2485136  0.069425774   -2.4283973    1.1798837  1635751 
  381000    1.0029458   -2.4293809   -2.4293809   -1.2476335  0.071192374   -2.4293809    1.1817474  1635724 
  382000    1.0023585   -2.4288191   -2.4288191   -1.2477442  0.068209284   -2.4288191    1.1810749  1635697 
  383000    1.0016675   -2.4283521   -2.4283521    -1.248072  0.069006162   -2.4283521    1.1802801  1635670 
  384000    1.0019081   -2.4284515   -2.4284515   -1.2478683  0.068128811   -2.4284515    1.1805832  1635643 
  385000    1.0013954   -2.4281284   -2.4281284   -1.2481299  0.070024381   -2.4281284    1.1799985  1635616 
  386000    1.0012787   -2.4275347   -2.4275347   -1.2476543  0.071854367   -2.4275347    1.1798804  1635589 
  387000    1.0017214   -2.4279459   -2.4279459   -1.2475242  0.069816373   -2.4279459    1.1804216  1635562 
  388000    1.0017855   -2.4277783   -2.4277783   -1.2472616  0.069020717   -2.4277783    1.1805167  1635535 
  389000    1.0018174   -2.4282282   -2.4282282   -1.2476545  0.070993756   -2.4282282    1.1805737  1635508 
  390000    1.0014031   -2.4278661   -2.4278661   -1.2477611  0.069577129   -2.4278661     1.180105  1635481 
  391000     1.000872   -2.4274397   -2.4274397   -1.2479411  0.072226042   -2.4274397    1.1794986  1635454 
  392000    1.0006207   -2.4270883   -2.4270883   -1.2478664  0.072525665   -2.4270883    1.1792219  1635427 
  393000    1.0019109     -2.42849     -2.42849   -1.2477281  0.071402283     -2.42849    1.1807619  1635400 
  394000     1.001894   -2.4284402   -2.4284402   -1.2476787   0.06843142   -2.4284402    1.1807615  1635373 
  395000    1.0012126   -2.4274333   -2.4274333   -1.2474554  0.069899232   -2.4274333    1.1799778  1635346 
  396000    1.0017821   -2.4280634   -2.4280634   -1.2473949  0.070552248   -2.4280634    1.1806685  1635319 
  397000    1.0020003      -2.4285      -2.4285   -1.2475548  0.069234708      -2.4285    1.1809452  1635292 
  398000    1.0017073   -2.4284126   -2.4284126   -1.2477933  0.068905113   -2.4284126    1.1806193  1635265 
  399000    1.0011971   -2.4280561   -2.4280561   -1.2480186  0.069419421   -2.4280561    1.1800375  1635238 
  400000    1.0017127    -2.428306    -2.428306   -1.2476412  0.069151732    -2.428306    1.1806648  1635211 
  401000    1.0011353   -2.4280278   -2.4280278   -1.2480241  0.069752936   -2.4280278    1.1800037  1635184 
  402000    1.0017592   -2.4283504   -2.4283504   -1.2475918  0.071440439   -2.4283504    1.1807585  1635157 
  403000    1.0009534   -2.4271675   -2.4271675   -1.2473393  0.070318249   -2.4271675    1.1798283  1635130 
  404000     1.001973   -2.4281263   -2.4281263   -1.2470768  0.072035688   -2.4281263    1.1810495  1635103 
  405000    1.0016769   -2.4275241   -2.4275241   -1.2468041  0.069572099   -2.4275241      1.18072  1635076 
  406000    1.0019574   -2.4278954   -2.4278954   -1.2468252  0.070931991   -2.4278954    1.1810702  1635049 
  407000    1.0022208    -2.427281    -2.427281   -1.2458801  0.070820885    -2.427281    1.1814009  1635021 
  408000    1.0022961   -2.4274679   -2.4274679   -1.2459588  0.069716725   -2.4274679    1.1815092  1634994 
  409000     1.002634   -2.4278956   -2.4278956   -1.2459687  0.069797802   -2.4278956    1.1819269  1634967 
  410000    1.0011527   -2.4262208   -2.4262208   -1.2460205  0.072174528   -2.4262208    1.1802003  1634940 
  411000    1.0019677   -2.4271544   -2.4271544   -1.2459739  0.070431352   -2.4271544    1.1811805  1634913 
  412000    1.0021365   -2.4271296   -2.4271296   -1.2457305  0.068098259   -2.4271296    1.1813991  1634886 
  413000    1.0022665   -2.4271412   -2.4271412   -1.2455694   0.07177063   -2.4271412    1.1815718  1634859 
  414000    1.0021965   -2.4268648   -2.4268648    -1.245356  0.071300335   -2.4268648    1.1815088  1634832 
  415000    1.0023706   -2.4279631   -2.4279631   -1.2462296  0.070837162   -2.4279631    1.1817335  1634805 
  416000    1.0021828   -2.4279099   -2.4279099   -1.2463782  0.066972064   -2.4279099    1.1815317  1634778 
  417000    1.0031338   -2.4291699   -2.4291699   -1.2464975  0.070895204   -2.4291699    1.1826724  1634751 
  418000    1.0017344   -2.4279792   -2.4279792   -1.2469372  0.068978097   -2.4279792     1.181042  1634724 
  419000    1.0019487   -2.4285091   -2.4285091   -1.2471949  0.068883338   -2.4285091    1.1813142  1634697 
  420000     1.001592    -2.427882    -2.427882   -1.2469688  0.072917997    -2.427882    1.1809131  1634670 
  421000    1.0014161   -2.4272581   -2.4272581   -1.2465328  0.071163787   -2.4272581    1.1807253  1634643 
  422000    1.0018315   -2.4277408   -2.4277408   -1.2465062  0.069287883   -2.4277408    1.1812346  1634616 
  423000    1.0017489   -2.4277954   -2.4277954   -1.2466387  0.068744377   -2.4277954    1.1811567  1634589 
  424000    1.0014174   -2.4271677   -2.4271677   -1.2463824  0.068210466   -2.4271677    1.1807853  1634562 
  425000    1.0010611   -2.4271554   -2.4271554   -1.2467708  0.068702399   -2.4271554    1.1803846  1634535 
  426000    1.0011712   -2.4271253   -2.4271253   -1.2465913  0.070176408   -2.4271253     1.180534  1634508 
  427000    1.0013746   -2.4268309   -2.4268309   -1.2460375   0.06904135   -2.4268309    1.1807934  1634481 
  428000    1.0008526   -2.4263871   -2.4263871   -1.2461898  0.070038937   -2.4263871    1.1801973  1634454 
  429000    1.0009641   -2.4268336   -2.4268336   -1.2464853   0.07042642   -2.4268336    1.1803483  1634427 
  430000    1.0012718   -2.4271043   -2.4271043   -1.2463737  0.067928345   -2.4271043    1.1807306  1634400 
  431000     1.000771    -2.426563    -2.426563   -1.2464034  0.067645523    -2.426563    1.1801596  1634373 
  432000    1.0013109   -2.4273381   -2.4273381   -1.2465223  0.070682144   -2.4273381    1.1808158  1634346 
  433000    1.0014619   -2.4272228   -2.4272228   -1.2462095  0.067171577   -2.4272228    1.1810133  1634319 
  434000    1.0010031   -2.4264183   -2.4264183   -1.2459264  0.072790897   -2.4264183    1.1804918  1634292 
  435000    1.0013808    -2.426658    -2.426658   -1.2457013  0.070598502    -2.426658    1.1809567  1634265 
  436000    1.0011301   -2.4264719   -2.4264719   -1.2457914  0.068728023   -2.4264719    1.1806806  1634238 
  437000    1.0015172   -2.4267505   -2.4267505   -1.2455939  0.070076071   -2.4267505    1.1811566  1634211 
  438000    1.0011423   -2.4268995   -2.4268995   -1.2461655  0.070246355   -2.4268995     1.180734  1634184 
  439000    1.0004358   -2.4254095   -2.4254095   -1.2454893  0.070029654   -2.4254095    1.1799202  1634157 
  440000    1.0003497   -2.4251179   -2.4251179   -1.2452796  0.070192032   -2.4251179    1.1798383  1634130 
  441000    1.0001936   -2.4247896   -2.4247896   -1.2451161  0.070895203   -2.4247896    1.1796736  1634103 
  442000     1.001418   -2.4261123   -2.4261123   -1.2449751  0.068317994   -2.4261123    1.1811372  1634076 
  443000    1.0007978   -2.4251621   -2.4251621   -1.2447369  0.072911071   -2.4251621    1.1804252  1634049 
  444000    1.0013838   -2.4257556   -2.4257556    -1.244619  0.070214914   -2.4257556    1.1811366  1634021 
  445000    1.0007772   -2.4250043   -2.4250043   -1.2445636  0.071799029   -2.4250043    1.1804406  1633994 
  446000    1.0017323   -2.4261689   -2.4261689   -1.2445821  0.070175153   -2.4261689    1.1815868  1633967 
  447000    1.0014434   -2.4258404   -2.4258404    -1.244575  0.070490919   -2.4258404    1.1812654  1633940 
  448000    1.0011857   -2.4258208   -2.4258208   -1.2448398  0.070917548   -2.4258208     1.180981  1633913 
  449000    1.0000377   -2.4247773   -2.4247773   -1.2451309   0.07252284   -2.4247773    1.1796464  1633886 
  450000    1.0005538   -2.4253631   -2.4253631   -1.2450885  0.072163525   -2.4253631    1.1802747  1633859 
  451000    1.0009345   -2.4253183   -2.4253183    -1.244575  0.067595138   -2.4253183    1.1807433  1633832 
  452000    1.0018316   -2.4264462   -2.4264462   -1.2446252  0.069046538   -2.4264462     1.181821  1633805 
  453000    1.0013729    -2.425679    -2.425679   -1.2443796   0.06934073    -2.425679    1.1812994  1633778 
  454000    1.0003725   -2.4247228   -2.4247228    -1.244584  0.070939099   -2.4247228    1.1801388  1633751 
  455000      1.00015   -2.4244486   -2.4244486   -1.2445528  0.072317139   -2.4244486    1.1798959  1633724 
  456000     1.000699    -2.425526    -2.425526    -1.244963  0.067464968    -2.425526     1.180563  1633697 
  457000    1.0000961   -2.4240812   -2.4240812     -1.24421  0.071899708   -2.4240812    1.1798712  1633670 
  458000    1.0011112   -2.4252224   -2.4252224   -1.2441341  0.068601227   -2.4252224    1.1810884  1633643 
  459000    1.0003663   -2.4245706   -2.4245706   -1.2443416  0.068055124   -2.4245706     1.180229  1633616 
  460000    1.0002818   -2.4249318   -2.4249318    -1.244783  0.070594456   -2.4249318    1.1801488  1633589 
  461000    1.0005314   -2.4250707   -2.4250707    -1.244608  0.066476006   -2.4250707    1.1804628  1633562 
  462000    0.9998188   -2.4242777   -2.4242777   -1.2446362  0.068302508   -2.4242777    1.1796416  1633535 
  463000    1.0001851   -2.4245945   -2.4245945   -1.2445013    0.0704849   -2.4245945    1.1800932  1633508 
  464000   0.99926614    -2.423883    -2.423883   -1.2448545  0.068872215    -2.423883    1.1790285  1633481 
  465000    1.0008009    -2.425413    -2.425413   -1.2445542  0.068196908    -2.425413    1.1808588  1633454 
  466000    1.0001741   -2.4247226   -2.4247226   -1.2445839  0.065301235   -2.4247226    1.1801387  1633427 
  467000   0.99965516   -2.4244768   -2.4244768   -1.2449308  0.071231663   -2.4244768     1.179546  1633400 
  468000    1.0000928   -2.4247748   -2.4247748   -1.2446929  0.070431872   -2.4247748    1.1800818  1633373 
  469000   0.99973899   -2.4245737   -2.4245737   -1.2448898  0.063433316   -2.4245737    1.1796839  1633346 
  470000   0.99957375    -2.424354    -2.424354   -1.2448456  0.068239611    -2.424354    1.1795084  1633319 
  471000   0.99999249   -2.4247157   -2.4247157   -1.2446937  0.067401013   -2.4247157     1.180022  1633292 
  472000    1.0003758   -2.4244902   -2.4244902   -1.2439964  0.069403677   -2.4244902    1.1804938  1633265 
  473000   0.99982298   -2.4235225   -2.4235225   -1.2436615  0.071665861   -2.4235225     1.179861  1633238 
  474000   0.99969235   -2.4235901   -2.4235901   -1.2438637  0.069380756   -2.4235901    1.1797264  1633211 
  475000     1.000182   -2.4239203   -2.4239203   -1.2435966  0.068230399   -2.4239203    1.1803237  1633184 
  476000    1.0004361   -2.4244181   -2.4244181    -1.243775  0.071182431   -2.4244181    1.1806431  1633157 
  477000   0.99978424   -2.4238545   -2.4238545   -1.2439612  0.071425666   -2.4238545    1.1798933  1633130 
  478000   0.99908291   -2.4235239   -2.4235239   -1.2444388   0.06825975   -2.4235239    1.1790851  1633103 
  479000    1.0007152   -2.4253062   -2.4253062   -1.2442751  0.070271958   -2.4253062    1.1810311  1633076 
  480000   0.99949195   -2.4235713   -2.4235713   -1.2439644  0.070662734   -2.4235713    1.1796069  1633049 
  481000   0.99963558   -2.4239367   -2.4239367   -1.2441401  0.068262489   -2.4239367    1.1797966  1633021 
  482000   0.99943076   -2.4239283   -2.4239283   -1.2443539  0.067641764   -2.4239283    1.1795744  1632994 
  483000    1.0002799   -2.4247446   -2.4247446   -1.2441485  0.069097508   -2.4247446    1.1805961  1632967 
  484000   0.99973979   -2.4239529   -2.4239529   -1.2439748    0.0700727   -2.4239529    1.1799781  1632940 
  485000    1.0001205   -2.4244847   -2.4244847   -1.2440376  0.070948405   -2.4244847     1.180447  1632913 
  486000   0.99956296   -2.4233709   -2.4233709   -1.2435624  0.071325466   -2.4233709    1.1798084  1632886 
  487000    1.0007655   -2.4247749   -2.4247749   -1.2435276  0.068739567   -2.4247749    1.1812473  1632859 
  488000    1.0015594   -2.4261537   -2.4261537   -1.2439498  0.070207771   -2.4261537    1.1822039  1632832 
  489000   0.99992461   -2.4238678   -2.4238678   -1.2435739  0.071250246   -2.4238678    1.1802939  1632805 
  490000   0.99965973   -2.4239093   -2.4239093   -1.2439086  0.074360222   -2.4239093    1.1800007  1632778 
  491000   0.99952737   -2.4239881   -2.4239881   -1.2441241  0.069383887   -2.4239881     1.179864  1632751 
  492000   0.99953379   -2.4244434   -2.4244434   -1.2445524  0.069463126   -2.4244434    1.1798911  1632724 
  493000   0.99951759   -2.4244289   -2.4244289   -1.2445375  0.069171813   -2.4244289    1.1798914  1632697 
  494000   0.99969183     -2.42449     -2.42449   -1.2443733  0.071957537     -2.42449    1.1801167  1632670 
  495000   0.99995794   -2.4251375   -2.4251375   -1.2446872   0.07146112   -2.4251375    1.1804503  1632643 
  496000   0.99963759    -2.424536    -2.424536   -1.2444443  0.067405848    -2.424536    1.1800917  1632616 
  497000   0.99889744   -2.4237894   -2.4237894    -1.244552  0.071077822   -2.4237894    1.1792374  1632589 
  498000    1.0006874   -2.4258954   -2.4258954   -1.2445253  0.069886871   -2.4258954    1.1813701  1632562 
  499000   0.99890012   -2.4239749   -2.4239749   -1.2446953  0.068545023   -2.4239749    1.1792796  1632535 
  500000   0.99939259   -2.4246569   -2.4246569   -1.2447764  0.068150285   -2.4246569    1.1798805  1632508 
  501000    0.9995927   -2.4249432   -2.4249432   -1.2448069  0.069312822   -2.4249432    1.1801362  1632481 
  502000    1.0002568   -2.4257632   -2.4257632   -1.2448234  0.070966765   -2.4257632    1.1809398  1632454 
  503000   0.99974027   -2.4253952   -2.4253952   -1.2450457  0.072876976   -2.4253952    1.1803495  1632427 
  504000    1.0000703   -2.4254372   -2.4254372   -1.2446785  0.065903468   -2.4254372    1.1807587  1632400 
  505000    1.0002637   -2.4252934   -2.4252934   -1.2442868  0.069365831   -2.4252934    1.1810066  1632373 
  506000   0.99946364   -2.4248734   -2.4248734    -1.244792  0.074080059   -2.4248734    1.1800815  1632346 
  507000    1.0002913    -2.425233    -2.425233   -1.2441548  0.071759485    -2.425233    1.1810783  1632319 
  508000   0.99873929   -2.4237046   -2.4237046   -1.2444394  0.067636264   -2.4237046    1.1792652  1632292 
  509000   0.99961084    -2.424525    -2.424525   -1.2442111  0.070280694    -2.424525    1.1803138  1632265 
  510000    1.0000095   -2.4247758   -2.4247758   -1.2439717  0.070507191   -2.4247758    1.1808041  1632238 
  511000    0.9994512   -2.4243188   -2.4243188   -1.2441544  0.070601771   -2.4243188    1.1801644  1632211 
  512000    1.0000899   -2.4252623   -2.4252623   -1.2443242  0.073535779   -2.4252623    1.1809381  1632184 
  513000   0.99968263   -2.4250461   -2.4250461   -1.2445693  0.071765788   -2.4250461    1.1804767  1632157 
  514000   0.99935681   -2.4240068   -2.4240068   -1.2438953   0.07165723   -2.4240068    1.1801115  1632130 
  515000    1.0003668   -2.4253812   -2.4253812   -1.2440575  0.070974551   -2.4253812    1.1813237  1632103 
  516000    1.0003877   -2.4259089   -2.4259089    -1.244541  0.068997565   -2.4259089    1.1813679  1632076 
  517000    1.0003629   -2.4252944   -2.4252944   -1.2439362  0.070340305   -2.4252944    1.1813582  1632049 
  518000    1.0003547   -2.4250365   -2.4250365   -1.2436677  0.067993656   -2.4250365    1.1813688  1632021 
  519000     1.000992   -2.4255767   -2.4255767   -1.2434358  0.072166702   -2.4255767     1.182141  1631994 
  520000    1.0000078    -2.425006    -2.425006   -1.2440079  0.072031944    -2.425006    1.1809982  1631967 
  521000    1.0014098   -2.4264571   -2.4264571   -1.2437837  0.069171672   -2.4264571    1.1826734  1631940 
  522000    1.0002808   -2.4255759   -2.4255759   -1.2442163  0.072370249   -2.4255759    1.1813597  1631913 
  523000    1.0008262   -2.4262363   -2.4262363   -1.2442129  0.074600688   -2.4262363    1.1820234  1631886 
  524000    1.0001549   -2.4248278   -2.4248278   -1.2435777  0.071325568   -2.4248278      1.18125  1631859 
  525000    1.0005637   -2.4250168   -2.4250168   -1.2432644  0.071773541   -2.4250168    1.1817524  1631832 
  526000    1.0002487   -2.4250431   -2.4250431   -1.2436432  0.069775998   -2.4250431    1.1813999  1631805 
  527000    1.0002622   -2.4251779   -2.4251779   -1.2437425   0.07241453   -2.4251779    1.1814355  1631778 
  528000    1.0004181   -2.4255207   -2.4255207   -1.2438816  0.070777927   -2.4255207    1.1816391  1631751 
  529000    1.0002192   -2.4250159   -2.4250159   -1.2435922  0.074035558   -2.4250159    1.1814237  1631724 
  530000    1.0006629   -2.4253406   -2.4253406   -1.2433733  0.069374553   -2.4253406    1.1819673  1631697 
  531000   0.99991687   -2.4245618   -2.4245618   -1.2434561  0.070835655   -2.4245618    1.1811057  1631670 
  532000   0.99944111   -2.4239054   -2.4239054   -1.2433422  0.070480525   -2.4239054    1.1805633  1631643 
  533000    0.9991929   -2.4237619   -2.4237619   -1.2434723  0.069699157   -2.4237619    1.1802896  1631616 
  534000   0.99966833   -2.4245187   -2.4245187   -1.2436479   0.07165438   -2.4245187    1.1808708  1631589 
  535000   0.99954373   -2.4236505   -2.4236505   -1.2429074  0.068221626   -2.4236505    1.1807431  1631562 
  536000   0.99972046   -2.4237228   -2.4237228   -1.2427514   0.07406943   -2.4237228    1.1809714  1631535 
  537000   0.99971666   -2.4237176   -2.4237176   -1.2427311  0.069970683   -2.4237176    1.1809865  1631508 
  538000    0.9994961   -2.4238168   -2.4238168   -1.2430714   0.06917967   -2.4238168    1.1807455  1631481 
  539000   0.99930943   -2.4233602   -2.4233602   -1.2428157  0.068872041   -2.4233602    1.1805445  1631454 
  540000   0.99881732   -2.4222567   -2.4222567    -1.242274  0.072788915   -2.4222567    1.1799827  1631427 
  541000   0.99942132     -2.42366     -2.42366   -1.2429442  0.074619835     -2.42366    1.1807158  1631400 
  542000    1.0007808   -2.4249722   -2.4249722   -1.2426308  0.068019538   -2.4249722    1.1823414  1631373 
  543000   0.99943026    -2.423694    -2.423694   -1.2429286  0.067978079    -2.423694    1.1807654  1631346 
  544000    0.9989832   -2.4228545   -2.4228545   -1.2425977  0.069579833   -2.4228545    1.1802568  1631319 
  545000   0.99916902   -2.4226774   -2.4226774   -1.2421815  0.071318383   -2.4226774    1.1804958  1631292 
  546000   0.99957315    -2.422634    -2.422634   -1.2416411    0.0701663    -2.422634    1.1809929  1631265 
  547000    0.9995264   -2.4227233   -2.4227233   -1.2417661  0.067516931   -2.4227233    1.1809572  1631238 
  548000   0.99946278   -2.4224373   -2.4224373   -1.2415357  0.069397532   -2.4224373    1.1809016  1631211 
  549000   0.99917745   -2.4220878   -2.4220878   -1.2415039  0.069165183   -2.4220878     1.180584  1631184 
  550000   0.99959757   -2.4226008   -2.4226008   -1.2415009  0.065320626   -2.4226008    1.1810999  1631157 
  551000    0.9983294   -2.4210862   -2.4210862   -1.2414652  0.070538213   -2.4210862     1.179621  1631130 
  552000   0.99888964   -2.4214197   -2.4214197   -1.2411172  0.073683575   -2.4214197    1.1803025  1631103 
  553000   0.99829017   -2.4211346   -2.4211346   -1.2415209  0.070567898   -2.4211346    1.1796137  1631076 
  554000   0.99889441   -2.4219956   -2.4219956   -1.2416484  0.067145488   -2.4219956    1.1803472  1631049 
  555000   0.99829363   -2.4215681   -2.4215681   -1.2419105  0.070314604   -2.4215681    1.1796576  1631021 
  556000   0.99893898   -2.4222739   -2.4222739   -1.2418342  0.071417305   -2.4222739    1.1804397  1630994 
  557000   0.99908662   -2.4219195   -2.4219195   -1.2412858  0.074602372   -2.4219195    1.1806337  1630967 
  558000   0.99941326   -2.4219015   -2.4219015   -1.2408622   0.07095487   -2.4219015    1.1810392  1630940 
  559000   0.99893847   -2.4217104   -2.4217104   -1.2412127  0.070671526   -2.4217104    1.1804977  1630913 
  560000   0.99925512   -2.4225782   -2.4225782   -1.2416868  0.070837169   -2.4225782    1.1808915  1630886 
  561000    0.9987654   -2.4211893   -2.4211893    -1.240857  0.073234407   -2.4211893    1.1803323  1630859 
  562000   0.99833748   -2.4212917   -2.4212917   -1.2414456  0.067450052   -2.4212917    1.1798461  1630832 
  563000    0.9987157   -2.4213347   -2.4213347   -1.2410221  0.070014828   -2.4213347    1.1803126  1630805 
  564000   0.99939217   -2.4218959   -2.4218959   -1.2407642  0.071949578   -2.4218959    1.1811316  1630778 
  565000   0.99895057   -2.4212807   -2.4212807   -1.2406515  0.067925565   -2.4212807    1.1806293  1630751 
  566000   0.99920584   -2.4221805   -2.4221805     -1.24123  0.070919207   -2.4221805    1.1809505  1630724 
  567000    0.9987569    -2.422093    -2.422093   -1.2416535  0.070577891    -2.422093    1.1804395  1630697 
  568000   0.99944325   -2.4224807   -2.4224807   -1.2412105  0.070486967   -2.4224807    1.1812703  1630670 
  569000   0.99894907   -2.4224244   -2.4224244   -1.2417187  0.069895266   -2.4224244    1.1807057  1630643 
  570000   0.99961118   -2.4231702   -2.4231702   -1.2416624  0.070789903   -2.4231702    1.1815079  1630616 
  571000   0.99840975   -2.4222467   -2.4222467   -1.2421393  0.069576288   -2.4222467    1.1801073  1630589 
  572000   0.99857726    -2.422898    -2.422898   -1.2425732  0.070859945    -2.422898    1.1803249  1630562 
  573000   0.99825253   -2.4230464   -2.4230464   -1.2430859  0.074532261   -2.4230464    1.1799606  1630535 
  574000   0.99822239   -2.4228217   -2.4228217   -1.2428772  0.072708819   -2.4228217    1.1799445  1630508 
  575000   0.99953273    -2.423733    -2.423733   -1.2422201  0.070381379    -2.423733    1.1815129  1630481 
  576000   0.99851315   -2.4225094   -2.4225094   -1.2421822  0.072078371   -2.4225094    1.1803273  1630454 
  577000   0.99813814   -2.4221278   -2.4221278   -1.2422243  0.069392465   -2.4221278    1.1799035  1630427 
  578000   0.99854537   -2.4225304   -2.4225304   -1.2421259  0.071186698   -2.4225304    1.1804045  1630400 
  579000   0.99833576   -2.4224283   -2.4224283   -1.2422521  0.073044789   -2.4224283    1.1801762  1630373 
  580000   0.99848037   -2.4225877   -2.4225877    -1.242221  0.069031312   -2.4225877    1.1803667  1630346 
  581000   0.99792882   -2.4217173   -2.4217173    -1.241983  0.071840743   -2.4217173    1.1797342  1630319 
  582000   0.99846251   -2.4227942   -2.4227942   -1.2424095  0.072941762   -2.4227942    1.1803847  1630292 
  583000   0.99874707   -2.4230822   -2.4230822   -1.2423415  0.068028859   -2.4230822    1.1807407  1630265 
  584000    0.9991997   -2.4234496   -2.4234496   -1.2421543  0.073986816   -2.4234496    1.1812953  1630238 
  585000   0.99859242   -2.4233607   -2.4233607   -1.2427638  0.073696651   -2.4233607    1.1805969  1630211 
  586000   0.99919451   -2.4233786   -2.4233786   -1.2420502  0.072450939   -2.4233786    1.1813283  1630184 
  587000    1.0000231   -2.4235142   -2.4235142   -1.2411866  0.071734267   -2.4235142    1.1823276  1630157 
  588000    0.9992411   -2.4232237   -2.4232237   -1.2418012  0.070456019   -2.4232237    1.1814226  1630130 
  589000   0.99910652     -2.42281     -2.42281    -1.241527  0.072397534     -2.42281     1.181283  1630103 
  590000     1.000018   -2.4240835   -2.4240835   -1.2417032  0.073861072   -2.4240835    1.1823803  1630076 
  591000   0.99935398   -2.4231359   -2.4231359   -1.2415212   0.07374882   -2.4231359    1.1816147  1630049 
  592000   0.99970464   -2.4238029   -2.4238029   -1.2417533  0.075192865   -2.4238029    1.1820496  1630021 
  593000   0.99970348   -2.4236546   -2.4236546   -1.2415868  0.074050496   -2.4236546    1.1820678  1629994 
  594000   0.99985656   -2.4238552   -2.4238552   -1.2415868  0.072597174   -2.4238552    1.1822684  1629967 
  595000   0.99955522   -2.4236377   -2.4236377    -1.241706  0.074205178   -2.4236377    1.1819317  1629940 
  596000   0.99950104   -2.4233936   -2.4233936   -1.2415063  0.074323364   -2.4233936    1.1818872  1629913 
  597000   0.99961304   -2.4234826   -2.4234826   -1.2414434  0.074168949   -2.4234826    1.1820392  1629886 
  598000   0.99952573   -2.4234253   -2.4234253   -1.2414697  0.071906619   -2.4234253    1.1819556  1629859 
  599000   0.99908753   -2.4222318   -2.4222318   -1.2407749  0.072847246   -2.4222318     1.181457  1629832 
  600000   0.99950588   -2.4225319   -2.4225319   -1.2405607  0.071979754   -2.4225319    1.1819713  1629805 
  601000   0.99928114   -2.4220177   -2.4220177   -1.2402926  0.074546518   -2.4220177    1.1817251  1629778 
  602000   0.99925046   -2.4219121   -2.4219121   -1.2402037  0.072658093   -2.4219121    1.1817084  1629751 
  603000   0.99863383   -2.4215022   -2.4215022   -1.2405035  0.073388304   -2.4215022    1.1809987  1629724 
  604000   0.99912815   -2.4224157   -2.4224157   -1.2408128  0.073529002   -2.4224157    1.1816029  1629697 
  605000   0.99920168   -2.4229673   -2.4229673   -1.2412579  0.067887653   -2.4229673    1.1817094  1629670 
  606000   0.99844725   -2.4218144   -2.4218144   -1.2409776  0.071989393   -2.4218144    1.1808367  1629643 
  607000   0.99832852   -2.4215671   -2.4215671   -1.2408513  0.069177691   -2.4215671    1.1807159  1629616 
  608000   0.99779745   -2.4210182   -2.4210182   -1.2409108  0.071992906   -2.4210182    1.1801073  1629589 
  609000   0.99783917   -2.4214265   -2.4214265   -1.2412503  0.070849502   -2.4214265    1.1801762  1629562 
  610000   0.99807969   -2.4210548   -2.4210548   -1.2405746  0.069959484   -2.4210548    1.1804803  1629535 
  611000   0.99774822   -2.4207061   -2.4207061   -1.2405983  0.071040151   -2.4207061    1.1801078  1629508 
  612000   0.99743733     -2.42015     -2.42015   -1.2403904  0.069907111     -2.42015    1.1797596  1629481 
  613000   0.99841813   -2.4206756   -2.4206756   -1.2397363  0.071338612   -2.4206756    1.1809393  1629454 
  614000   0.99890761   -2.4210993   -2.4210993   -1.2395615  0.068797086   -2.4210993    1.1815378  1629427 
  615000   0.99807494   -2.4197339   -2.4197339   -1.2391614  0.069594366   -2.4197339    1.1805725  1629400 
  616000   0.99785727   -2.4195735   -2.4195735    -1.239239  0.074300873   -2.4195735    1.1803345  1629373 
  617000   0.99952696   -2.4213395   -2.4213395   -1.2390104  0.070788404   -2.4213395    1.1823292  1629346 
  618000    0.9979983   -2.4192223   -2.4192223   -1.2386818  0.071829336   -2.4192223    1.1805405  1629319 
  619000   0.99856097   -2.4197498   -2.4197498   -1.2385242  0.073133146   -2.4197498    1.1812257  1629292 
  620000   0.99876857   -2.4193038   -2.4193038    -1.237813  0.070313784   -2.4193038    1.1814908  1629265 
  621000   0.99876101   -2.4186798   -2.4186798   -1.2371783  0.072123923   -2.4186798    1.1815015  1629238 
  622000    0.9985496   -2.4184754   -2.4184754   -1.2372045  0.072125208   -2.4184754    1.1812709  1629211 
  623000   0.99872403   -2.4186207   -2.4186207   -1.2371238  0.069429007   -2.4186207    1.1814969  1629184 
  624000   0.99851645   -2.4183852   -2.4183852   -1.2371143  0.071110718   -2.4183852    1.1812709  1629157 
  625000   0.99789081   -2.4178213   -2.4178213   -1.2372711  0.073133492   -2.4178213    1.1805503  1629130 
  626000   0.99863501   -2.4189575   -2.4189575   -1.2375072  0.070065075   -2.4189575    1.1814503  1629103 
  627000   0.99905304   -2.4194638   -2.4194638   -1.2374994  0.071802172   -2.4194638    1.1819644  1629076 
  628000   0.99888641   -2.4187431   -2.4187431   -1.2369562  0.074111556   -2.4187431    1.1817869  1629049 
  629000   0.99891951    -2.418864    -2.418864   -1.2370176  0.069592759    -2.418864    1.1818464  1629021 
  630000   0.99874184   -2.4187336   -2.4187336   -1.2370779  0.071509942   -2.4187336    1.1816557  1628994 
  631000   0.99793542   -2.4175237   -2.4175237   -1.2368025   0.07237531   -2.4175237    1.1807212  1628967 
  632000   0.99756646   -2.4172432   -2.4172432    -1.236939  0.070534223   -2.4172432    1.1803042  1628940 
  633000   0.99782654   -2.4176852   -2.4176852   -1.2370536  0.069144007   -2.4176852    1.1806315  1628913 
  634000   0.99759136   -2.4177982   -2.4177982   -1.2374253  0.070379358   -2.4177982    1.1803728  1628886 
  635000   0.99699039   -2.4173524   -2.4173524   -1.2376712  0.072796016   -2.4173524    1.1796813  1628859 
  636000   0.99666016   -2.4169246   -2.4169246   -1.2376145  0.071068179   -2.4169246    1.1793101  1628832 
  637000   0.99717947   -2.4173171   -2.4173171    -1.237373  0.064811026   -2.4173171    1.1799441  1628805 
  638000   0.99708612   -2.4171203   -2.4171203    -1.237267  0.072204633   -2.4171203    1.1798532  1628778 
  639000   0.99847421   -2.4187042   -2.4187042   -1.2371888  0.071982633   -2.4187042    1.1815153  1628751 
  640000   0.99740597   -2.4176386   -2.4176386   -1.2373678  0.069095888   -2.4176386    1.1802708  1628724 
  641000   0.99719588    -2.417149    -2.417149   -1.2371072  0.070705654    -2.417149    1.1800418  1628697 
  642000   0.99665942   -2.4166208   -2.4166208   -1.2371943   0.07275746   -2.4166208    1.1794265  1628670 
  643000   0.99744189   -2.4174778   -2.4174778   -1.2371058  0.067920463   -2.4174778     1.180372  1628643 
  644000   0.99777807   -2.4181339   -2.4181339   -1.2373444  0.067999449   -2.4181339    1.1807894  1628616 
  645000   0.99674561   -2.4170596   -2.4170596   -1.2374724  0.068674057   -2.4170596    1.1795872  1628589 
  646000   0.99733925   -2.4179417   -2.4179417   -1.2376325  0.069154148   -2.4179417    1.1803093  1628562 
  647000   0.99771442   -2.4181697   -2.4181697   -1.2373968  0.070921742   -2.4181697    1.1807729  1628535 
  648000   0.99743389   -2.4175282   -2.4175282   -1.2370678  0.071864285   -2.4175282    1.1804604  1628508 
  649000   0.99821212   -2.4180648   -2.4180648   -1.2366638  0.069815926   -2.4180648     1.181401  1628481 
  650000   0.99787385   -2.4177173   -2.4177173    -1.236697  0.070311031   -2.4177173    1.1810203  1628454 
  651000   0.99853598   -2.4190346   -2.4190346    -1.237211  0.068963897   -2.4190346    1.1818235  1628427 
  652000   0.99709511   -2.4175508   -2.4175508    -1.237413  0.069982471   -2.4175508    1.1801377  1628400 
  653000   0.99858744   -2.4190696   -2.4190696    -1.237146  0.069501987   -2.4190696    1.1819236  1628373 
  654000   0.99818864   -2.4181559   -2.4181559   -1.2366847  0.071054578   -2.4181559    1.1814712  1628346 
  655000   0.99845535    -2.418564    -2.418564   -1.2367576  0.071087438    -2.418564    1.1818065  1628319 
[...]
29832000   0.37615883   -1.1679991   -1.1679991  -0.30466691  0.061774956   -1.1679991   0.86333221   839751 
29833000   0.37624677   -1.1691099   -1.1691099  -0.30554806  0.062450589   -1.1691099   0.86356179   839724 
29834000   0.37641787   -1.1703622   -1.1703622   -0.3063799  0.061194835   -1.1703622   0.86398229   839697 
29835000   0.37671273   -1.1699072   -1.1699072  -0.30522031  0.059181992   -1.1699072   0.86468687   839670 
29836000   0.37692658   -1.1695068   -1.1695068  -0.30430122  0.060230918   -1.1695068   0.86520555   839643 
29837000   0.37679464   -1.1683593   -1.1683593  -0.30342878  0.058363582   -1.1683593   0.86493052   839616 
29838000   0.37691033   -1.1691195   -1.1691195  -0.30389561  0.059502308   -1.1691195   0.86522391   839589 
29839000   0.37673523   -1.1688659   -1.1688659  -0.30401619  0.060192222   -1.1688659   0.86484976   839562 
29840000   0.37608811   -1.1672777   -1.1672777  -0.30388569  0.061778904   -1.1672777   0.86339198   839535 
29841000   0.37639514   -1.1676772   -1.1676772   -0.3035526  0.059997511   -1.1676772   0.86412461   839508 
29842000   0.37690511   -1.1682113   -1.1682113  -0.30288803  0.061628884   -1.1682113   0.86532324   839481 
29843000   0.37699865   -1.1681352   -1.1681352  -0.30256936  0.060786318   -1.1681352   0.86556583   839454 
29844000   0.37718661   -1.1690116   -1.1690116  -0.30298634  0.061238929   -1.1690116   0.86602523   839427 
29845000    0.3766249   -1.1681966   -1.1681966  -0.30343327  0.059865593   -1.1681966   0.86476335   839400 
29846000   0.37644295   -1.1666338   -1.1666338  -0.30226044   0.06054687   -1.1666338   0.86437337   839373 
29847000   0.37664499   -1.1674505   -1.1674505  -0.30258545  0.061606392   -1.1674505    0.8648651   839346 
29848000   0.37687901    -1.168083    -1.168083  -0.30265269  0.062370523    -1.168083   0.86543031   839319 
29849000   0.37638596   -1.1663834   -1.1663834  -0.30205747  0.061628348   -1.1663834   0.86432592   839292 
29850000   0.37625297   -1.1653694   -1.1653694  -0.30132102  0.059613206   -1.1653694   0.86404833   839265 
29851000   0.37669759   -1.1654086   -1.1654086  -0.30031139  0.061645842   -1.1654086    0.8650972   839238 
29852000   0.37662884   -1.1661192   -1.1661192  -0.30115209  0.060858026   -1.1661192   0.86496714   839211 
29853000   0.37692407   -1.1655032   -1.1655032  -0.29983018  0.062223415   -1.1655032   0.86567303   839184 
29854000   0.37690896   -1.1653367   -1.1653367  -0.29967055  0.059779151   -1.1653367   0.86566618   839157 
29855000   0.37644772   -1.1644426   -1.1644426  -0.29980792  0.060877269   -1.1644426   0.86463464   839130 
29856000   0.37659426   -1.1650116   -1.1650116  -0.30001255  0.059686527   -1.1650116   0.86499904   839103 
29857000   0.37664305   -1.1649633   -1.1649633  -0.29982434  0.058925362   -1.1649633   0.86513896   839076 
29858000   0.37676631   -1.1654176   -1.1654176  -0.29996765  0.061255446   -1.1654176   0.86544992   839049 
29859000   0.37656376    -1.164013    -1.164013  -0.29899946  0.062863834    -1.164013   0.86501352   839021 
29860000    0.3770459   -1.1654198   -1.1654198  -0.29927087  0.061110108   -1.1654198   0.86614894   838994 
29861000   0.37723618   -1.1655876   -1.1655876  -0.29897365  0.062676281   -1.1655876   0.86661393   838967 
29862000    0.3771516    -1.165147    -1.165147  -0.29869947  0.062589191    -1.165147   0.86644751   838940 
29863000   0.37658317   -1.1636628   -1.1636628  -0.29849332  0.062282952   -1.1636628   0.86516947   838913 
29864000   0.37676512   -1.1637618   -1.1637618  -0.29814645  0.062240921   -1.1637618   0.86561536   838886 
29865000   0.37646048   -1.1631839   -1.1631839  -0.29824067  0.059683186   -1.1631839   0.86494328   838859 
29866000   0.37681835   -1.1634504   -1.1634504  -0.29765697  0.058907449   -1.1634504   0.86579339   838832 
29867000   0.37645217   -1.1630319   -1.1630319    -0.298052  0.060910061   -1.1630319   0.86497988   838805 
29868000   0.37530257   -1.1607607   -1.1607607  -0.29839453   0.06181265   -1.1607607   0.86236618   838778 
29869000   0.37614995   -1.1628357   -1.1628357  -0.29849457  0.060674132   -1.1628357   0.86434111   838751 
29870000   0.37561643   -1.1623073   -1.1623073  -0.29916439  0.060546191   -1.1623073   0.86314294   838724 
29871000   0.37580872   -1.1633343   -1.1633343  -0.29972172  0.062161975   -1.1633343    0.8636126   838697 
29872000   0.37609882    -1.164004    -1.164004  -0.29969691   0.05933775    -1.164004   0.86430709   838670 
29873000   0.37634224   -1.1648215   -1.1648215   -0.2999272  0.058711693   -1.1648215   0.86489433   838643 
29874000   0.37675974   -1.1651009   -1.1651009  -0.29921918   0.06244145   -1.1651009   0.86588169   838616 
29875000   0.37629193   -1.1653447   -1.1653447  -0.30051031  0.059890213   -1.1653447   0.86483439   838589 
29876000   0.37630942    -1.166135    -1.166135  -0.30123251    0.0611577    -1.166135   0.86490245   838562 
29877000   0.37604555   -1.1650421   -1.1650421  -0.30071825  0.060547101   -1.1650421    0.8643238   838535 
29878000   0.37555866   -1.1650778   -1.1650778  -0.30184528  0.060054951   -1.1650778    0.8632325   838508 
29879000   0.37652681   -1.1670925   -1.1670925  -0.30160682  0.059729185   -1.1670925   0.86548567   838481 
29880000   0.37637973   -1.1668517   -1.1668517  -0.30167622  0.062350542   -1.1668517   0.86517546   838454 
29881000   0.37608482   -1.1660499   -1.1660499  -0.30152452  0.059256681   -1.1660499   0.86452541   838427 
29882000   0.37525311   -1.1646299   -1.1646299  -0.30198858  0.062236087   -1.1646299   0.86264129   838400 
29883000   0.37564618   -1.1662644   -1.1662644  -0.30269168  0.060829035   -1.1662644   0.86357269   838373 
29884000   0.37552188   -1.1659256   -1.1659256  -0.30261089  0.061197451   -1.1659256   0.86331475   838346 
29885000   0.37534835   -1.1658146   -1.1658146  -0.30287099  0.060767912   -1.1658146    0.8629436   838319 
29886000   0.37491868   -1.1648797   -1.1648797  -0.30289615  0.062746182   -1.1648797   0.86198354   838292 
29887000   0.37588994   -1.1666477   -1.1666477  -0.30240334  0.060681538   -1.1666477    0.8642444   838265 
29888000   0.37572398   -1.1655972   -1.1655972  -0.30170655  0.060451922   -1.1655972   0.86389066   838238 
29889000    0.3758325   -1.1648324   -1.1648324  -0.30066444  0.060051355   -1.1648324     0.864168   838211 
29890000   0.37558334    -1.164418    -1.164418  -0.30079507  0.062765548    -1.164418   0.86362291   838184 
29891000   0.37613612   -1.1652387   -1.1652387  -0.30031689  0.062907823   -1.1652387   0.86492185   838157 
29892000   0.37548164   -1.1641827   -1.1641827  -0.30073796  0.062364852   -1.1641827   0.86344471   838130 
29893000   0.37589523   -1.1651355   -1.1651355  -0.30071185  0.062746255   -1.1651355   0.86442363   838103 
29894000   0.37629505   -1.1658605   -1.1658605  -0.30048959  0.062647279   -1.1658605   0.86537094   838076 
29895000   0.37562218    -1.163877    -1.163877  -0.30002562  0.061096418    -1.163877   0.86385136   838049 
29896000   0.37564594   -1.1637858   -1.1637858  -0.29985093  0.059891862   -1.1637858   0.86393488   838021 
29897000    0.3754904   -1.1639102   -1.1639102  -0.30030523  0.062168547   -1.1639102   0.86360499   837994 
29898000   0.37520173    -1.163684    -1.163684  -0.30071509  0.061556504    -1.163684   0.86296887   837967 
29899000   0.37557267   -1.1641147   -1.1641147  -0.30026484   0.06278399   -1.1641147   0.86384986   837940 
29900000   0.37477522   -1.1631772   -1.1631772  -0.30113375  0.060217445   -1.1631772   0.86204343   837913 
29901000   0.37521384   -1.1630458   -1.1630458  -0.29996567   0.05971578   -1.1630458   0.86308013   837886 
29902000    0.3751081   -1.1630388   -1.1630388   -0.3001741  0.060777443   -1.1630388   0.86286471   837859 
29903000   0.37583335   -1.1651672   -1.1651672  -0.30060636  0.058694427   -1.1651672   0.86456089   837832 
29904000   0.37556281   -1.1631191   -1.1631191  -0.29915268  0.062081034   -1.1631191   0.86396637   837805 
29905000   0.37564258   -1.1637063   -1.1637063  -0.29952854  0.061955562   -1.1637063   0.86417773   837778 
29906000   0.37518343   -1.1628959   -1.1628959  -0.29974661  0.060802257   -1.1628959   0.86314925   837751 
29907000   0.37562115   -1.1630704   -1.1630704  -0.29888629  0.062048271   -1.1630704   0.86418413   837724 
29908000   0.37539058   -1.1633545   -1.1633545  -0.29967304  0.061415164   -1.1633545   0.86368151   837697 
29909000   0.37561799   -1.1640014   -1.1640014  -0.29976882  0.061852339   -1.1640014   0.86423257   837670 
29910000   0.37512602   -1.1633621   -1.1633621   -0.3002336  0.060213953   -1.1633621   0.86312846   837643 
29911000   0.37535588   -1.1637643   -1.1637643  -0.30007909  0.061416144   -1.1637643   0.86368518   837616 
29912000   0.37487579   -1.1637881   -1.1637881  -0.30117981  0.060923924   -1.1637881    0.8626083   837589 
29913000   0.37511809   -1.1627713   -1.1627713  -0.29957757  0.060503366   -1.1627713   0.86319368   837562 
29914000   0.37497592   -1.1627556   -1.1627556   -0.2998613  0.059670601   -1.1627556   0.86289434   837535 
29915000   0.37525667   -1.1645239   -1.1645239  -0.30095569  0.061056668   -1.1645239   0.86356826   837508 
29916000   0.37485552   -1.1628889   -1.1628889  -0.30021602  0.061484565   -1.1628889   0.86267291   837481 
29917000   0.37563797   -1.1645723   -1.1645723  -0.30007082  0.063327415   -1.1645723   0.86450146   837454 
29918000   0.37527782   -1.1647292   -1.1647292  -0.30102877  0.061628801   -1.1647292   0.86370044   837427 
29919000   0.37518103   -1.1654147   -1.1654147  -0.30190917  0.062606205   -1.1654147   0.86350553   837400 
29920000   0.37437792   -1.1641417   -1.1641417  -0.30245684  0.061894188   -1.1641417   0.86168491   837373 
29921000   0.37480842   -1.1645958   -1.1645958  -0.30189221  0.060285003   -1.1645958   0.86270357   837346 
29922000   0.37571806   -1.1663104   -1.1663104  -0.30148519  0.061121009   -1.1663104    0.8648252   837319 
29923000   0.37550571    -1.165504    -1.165504  -0.30113974  0.062306601    -1.165504   0.86436428   837292 
29924000   0.37477645   -1.1643281   -1.1643281  -0.30161464  0.061549438   -1.1643281   0.86271344   837265 
29925000   0.37430634   -1.1631544   -1.1631544  -0.30149538  0.063002402   -1.1631544   0.86165905   837238 
29926000   0.37448499    -1.163334    -1.163334   -0.3012359  0.062543782    -1.163334   0.86209812   837211 
29927000   0.37474724   -1.1638863   -1.1638863   -0.3011566  0.059769462   -1.1638863   0.86272967   837184 
29928000   0.37478435   -1.1640043   -1.1640043  -0.30116135  0.059721585   -1.1640043   0.86284293   837157 
29929000   0.37541838   -1.1648569   -1.1648569  -0.30052641  0.063904765   -1.1648569   0.86433049   837130 
29930000   0.37454957   -1.1633961   -1.1633961  -0.30103803  0.062275783   -1.1633961   0.86235802   837103 
29931000   0.37515118    -1.164666    -1.164666  -0.30089496  0.062329592    -1.164666   0.86377104   837076 
29932000   0.37485099   -1.1639368   -1.1639368  -0.30082915  0.061419962   -1.1639368    0.8631077   837049 
29933000    0.3744296   -1.1629879   -1.1629879   -0.3008216  0.060300645   -1.1629879   0.86216626   837021 
29934000   0.37425097   -1.1631079   -1.1631079  -0.30132517  0.060957539   -1.1631079   0.86178276   836994 
29935000    0.3741573   -1.1626578   -1.1626578  -0.30106291  0.061839508   -1.1626578   0.86159484   836967 
29936000   0.37433784   -1.1629641   -1.1629641  -0.30092567  0.058672351   -1.1629641   0.86203841   836940 
29937000   0.37439202   -1.1626454   -1.1626454  -0.30045436  0.058995588   -1.1626454     0.862191   836913 
29938000   0.37515492   -1.1642519   -1.1642519  -0.30027616  0.061056073   -1.1642519   0.86397576   836886 
29939000   0.37454567   -1.1625845   -1.1625845  -0.29998399   0.06062605   -1.1625845   0.86260048   836859 
29940000   0.37501319   -1.1631853   -1.1631853  -0.29948025  0.061585767   -1.1631853   0.86370508   836832 
29941000   0.37447168   -1.1621543   -1.1621543  -0.29966852  0.062857782   -1.1621543   0.86248574   836805 
29942000   0.37428553   -1.1626218   -1.1626218    -0.300537  0.061222391   -1.1626218    0.8620848   836778 
29943000   0.37526303   -1.1638979   -1.1638979  -0.29953377  0.061410007   -1.1638979   0.86436416   836751 
29944000   0.37419949   -1.1613134   -1.1613134  -0.29937114  0.061391162   -1.1613134   0.86194225   836724 
29945000   0.37438722   -1.1610744   -1.1610744  -0.29867189    0.0621625   -1.1610744    0.8624025   836697 
29946000   0.37495531   -1.1621586   -1.1621586  -0.29841962  0.060426775   -1.1621586   0.86373899   836670 
29947000   0.37520138   -1.1624853   -1.1624853  -0.29815163   0.06143425   -1.1624853   0.86433371   836643 
29948000   0.37482753   -1.1605391   -1.1605391  -0.29703874  0.062310175   -1.1605391   0.86350035   836616 
29949000   0.37480695   -1.1603933   -1.1603933  -0.29691247  0.060375175   -1.1603933   0.86348082   836589 
29950000   0.37430642   -1.1603277   -1.1603277  -0.29797212  0.059428247   -1.1603277   0.86235553   836562 
29951000   0.37464502   -1.1595101   -1.1595101  -0.29634658   0.06136955   -1.1595101   0.86316347   836535 
29952000   0.37515692   -1.1605647   -1.1605647  -0.29619397  0.062070931   -1.1605647   0.86437076   836508 
29953000   0.37437027   -1.1591306   -1.1591306  -0.29654446  0.062490386   -1.1591306   0.86258616   836481 
29954000   0.37457826   -1.1586721   -1.1586721  -0.29557884  0.059692148   -1.1586721   0.86309323   836454 
29955000   0.37414201   -1.1586752   -1.1586752  -0.29655934  0.062222573   -1.1586752   0.86211587   836427 
29956000   0.37461249   -1.1587439   -1.1587439  -0.29551608  0.060405569   -1.1587439   0.86322783   836400 
29957000   0.37436756   -1.1583773   -1.1583773  -0.29568604  0.061420821   -1.1583773   0.86269128   836373 
29958000   0.37438215   -1.1587681   -1.1587681  -0.29601536   0.06015776   -1.1587681   0.86275276   836346 
29959000   0.37492864    -1.159538    -1.159538  -0.29549796  0.060410021    -1.159538   0.86404003   836319 
29960000   0.37444407    -1.159048    -1.159048  -0.29609683   0.06095035    -1.159048   0.86295117   836292 
29961000   0.37466646   -1.1594781   -1.1594781  -0.29598655  0.061684228   -1.1594781   0.86349158   836265 
29962000   0.37528301   -1.1597132   -1.1597132  -0.29477275  0.064953284   -1.1597132   0.86494045   836238 
29963000   0.37544537   -1.1608592   -1.1608592  -0.29551659   0.06175399   -1.1608592    0.8653426   836211 
29964000   0.37536783   -1.1606359   -1.1606359  -0.29544409  0.060890748   -1.1606359   0.86519183   836184 
29965000   0.37484948   -1.1599694   -1.1599694  -0.29594447  0.062091439   -1.1599694   0.86402496   836157 
29966000   0.37472882   -1.1599015   -1.1599015  -0.29612677   0.06249786   -1.1599015   0.86377475   836130 
29967000   0.37447033   -1.1586912   -1.1586912  -0.29548447  0.062806721   -1.1586912   0.86320678   836103 
29968000   0.37454189   -1.1587673   -1.1587673  -0.29536773   0.05988681   -1.1587673   0.86339961   836076 
29969000   0.37418909   -1.1579955   -1.1579955  -0.29538136  0.061190454   -1.1579955   0.86261419   836049 
29970000   0.37429635   -1.1583638   -1.1583638  -0.29547345  0.062926964   -1.1583638   0.86289036   836021 
29971000   0.37408253   -1.1582217   -1.1582217  -0.29579649  0.063089391   -1.1582217   0.86242526   835994 
29972000    0.3742961   -1.1574709   -1.1574709  -0.29452536  0.058981373   -1.1574709   0.86294551   835967 
29973000   0.37452528   -1.1591636   -1.1591636  -0.29566182  0.063069992   -1.1591636   0.86350178   835940 
29974000   0.37433428   -1.1592026   -1.1592026  -0.29611331  0.061939571   -1.1592026    0.8630893   835913 
29975000   0.37489894   -1.1595394   -1.1595394  -0.29512027  0.062567719   -1.1595394   0.86441913   835886 
29976000   0.37391333   -1.1593488   -1.1593488  -0.29717435  0.061028424   -1.1593488   0.86217442   835859 
29977000   0.37418531   -1.1598227   -1.1598227  -0.29699331  0.062743773   -1.1598227   0.86282942   835832 
29978000   0.37470555   -1.1603436   -1.1603436  -0.29628662   0.06216101   -1.1603436   0.86405695   835805 
29979000   0.37441748   -1.1601807   -1.1601807  -0.29676016  0.062531682   -1.1601807   0.86342057   835778 
29980000   0.37413441   -1.1596506   -1.1596506  -0.29685498   0.06234154   -1.1596506   0.86279567   835751 
29981000   0.37427461   -1.1595235   -1.1595235  -0.29637664   0.06091014   -1.1595235   0.86314687   835724 
29982000   0.37456642   -1.1601901   -1.1601901  -0.29634234  0.061936798   -1.1601901   0.86384776   835697 
29983000   0.37460431    -1.161189    -1.161189  -0.29722597  0.061897752    -1.161189   0.86396304   835670 
29984000    0.3741989   -1.1605309   -1.1605309  -0.29747498  0.063001018   -1.1605309   0.86305592   835643 
29985000     0.374408    -1.161312    -1.161312  -0.29774589  0.062938799    -1.161312    0.8635661   835616 
29986000   0.37431422   -1.1600541   -1.1600541  -0.29667645  0.064023621   -1.1600541    0.8633777   835589 
29987000   0.37376954   -1.1591772   -1.1591772  -0.29702801  0.063107208   -1.1591772   0.86214921   835562 
29988000   0.37419219   -1.1595842   -1.1595842  -0.29643215  0.059946436   -1.1595842     0.863152   835535 
29989000   0.37381703   -1.1588375   -1.1588375  -0.29652299   0.06364558   -1.1588375   0.86231447   835508 
29990000   0.37375824   -1.1584437   -1.1584437  -0.29623702  0.060957629   -1.1584437   0.86220672   835481 
29991000   0.37360868   -1.1579136   -1.1579136  -0.29602398  0.060538672   -1.1579136   0.86188957   835454 
29992000   0.37410972   -1.1588419   -1.1588419  -0.29576853   0.06296483   -1.1588419   0.86307332   835427 
29993000   0.37392783    -1.159819    -1.159819  -0.29713746  0.059977418    -1.159819   0.86268157   835400 
29994000   0.37387778   -1.1584212   -1.1584212  -0.29582724  0.060548803   -1.1584212   0.86259399   835373 
29995000   0.37355371     -1.15853     -1.15853  -0.29665583  0.063068195     -1.15853   0.86187417   835346 
29996000   0.37362554    -1.158175    -1.158175  -0.29610725  0.060844557    -1.158175   0.86206776   835319 
29997000   0.37421763     -1.15882     -1.15882  -0.29535815  0.061844182     -1.15882   0.86346181   835292 
29998000   0.37366189   -1.1587041   -1.1587041  -0.29649675  0.061521075   -1.1587041   0.86220737   835265 
29999000   0.37398966   -1.1593783   -1.1593783  -0.29638674   0.06207128   -1.1593783   0.86299158   835238 
30000000   0.37402718   -1.1585803   -1.1585803   -0.2954743  0.060074364   -1.1585803   0.86310605   835211 
Loop time of 51094.9 on 768 procs for 30000000 steps with 835211 atoms

Performance: 253645.582 tau/day, 587.143 timesteps/s
84.5% CPU use with 768 MPI tasks x 1 OpenMP threads

MPI task timing breakdown:
Section |  min time  |  avg time  |  max time  |%varavg|  %CPU | %total
-----------------------------------------------------------------------
Pair    | 2473.8     | 8830.9     | 14535      |3492.0 |  89.1 | 17.28
Bond    | 18.75      | 19.943     | 22.07      |   9.1 | 100.0 |  0.04
Neigh   | 3671.6     | 9043.8     | 11766      |1748.1 |  97.9 | 17.70
Comm    | 9739.2     | 15780      | 21749      |2261.3 |  81.7 | 30.88
Output  | 2890.3     | 2902.6     | 2921       |  17.3 |  71.9 |  5.68
Modify  | 8563.9     | 13715      | 20343      |2208.7 |  79.1 | 26.84
Other   |            | 802.2      |            |       |       |  1.57

Nlocal:        1087.51 ave        2244 max         239 min
Histogram: 11 47 66 167 293 89 56 28 6 5
Nghost:        2619.64 ave        4540 max         671 min
Histogram: 9 59 132 73 72 148 104 95 62 14
Neighs:        10993.9 ave       34711 max        1125 min
Histogram: 311 209 22 19 13 18 16 12 82 66

Total # of neighbors = 8443319
Ave neighs/atom = 10.109205
Ave special neighs/atom = 0.0000000
Neighbor list builds = 3262701
Dangerous builds = 2422701

Total wall time: 14:11:49
