LAMMPS (24 Dec 2020)
OMP_NUM_THREADS environment is not set. Defaulting to 1 thread. (src/comm.cpp:94)
  using 1 OpenMP thread(s) per MPI task
Created orthogonal box = (0.0000000 0.0000000 0.0000000) to (80.000000 80.000000 160.00000)
  6 by 4 by 8 MPI processor grid
Lattice spacing in x,y,z = 1.1485556 1.1485556 1.1485556
Created 421400 atoms
  create_atoms CPU = 0.160 seconds
421400 atoms in group solvent
Balancing ...
Neighbor list info ...
  update every 1 steps, delay 10 steps, check yes
  max neighbors/atom: 2000, page size: 100000
  master list distance cutoff = 1.9
  ghost atom cutoff = 1.9
  binsize = 0.95, bins = 85 85 169
  1 neighbor lists, perpetual/occasional/extra = 1 0 0
  (1) pair lj/smooth/linear, perpetual
      attributes: half, newton on
      pair build: half/bin/newton
      stencil: half/bin/3d/newton
      bin: standard
 rebalancing time: 0.039 seconds
  iteration count = 5
  initial/final maximal load/proc = 3888.0000 2376.0000
  initial/final imbalance factor  = 1.7714665 1.0825629
  x cuts: 0.0000000 0.16666667 0.33333333 0.50000000 0.66666667 0.83333333 1.0000000
  y cuts: 0.0000000 0.25000000 0.50000000 0.75000000 1.0000000
  z cuts: 0.0000000 0.089843750 0.16796875 0.24218750 0.32031250 0.39843750 0.48046875 0.55859375 1.0000000
dynamic group thermo defined
New timer settings: style=full  mode=nosync  timeout=off
Setting up Verlet run ...
  Unit style    : lj
  Current step  : 0
  Time step     : 0.005
Per MPI rank memory allocation (min/avg/max) = 9.959 | 9.999 | 10.10 Mbytes
Step Temp E_pair E_vdwl TotEng Press PotEng KinEng Atoms 
       0          0.9    2.2548251    2.2548251    3.6048219    5.7941607    2.2548251    1.3499968   421400 
    1000    1.4271033 -0.014193531 -0.014193531    2.1264563    2.4359984 -0.014193531    2.1406499   421400 
    2000    1.1602085  -0.18849945  -0.18849945    1.5518092    1.6501282  -0.18849945    1.7403086   421400 
    3000     1.009306  -0.22266507  -0.22266507    1.2912904    1.3542661  -0.22266507    1.5139555   421400 
    4000   0.94575405  -0.23736598  -0.23736598    1.1812617    1.1976989  -0.23736598    1.4186277   421400 
    5000   0.91852327  -0.23891957  -0.23891957    1.1388621     1.105548  -0.23891957    1.3777816   421400 
    6000   0.90493184  -0.23438887  -0.23438887    1.1230057    1.0484077  -0.23438887    1.3573945   421400 
    7000   0.89712954  -0.22689142  -0.22689142    1.1187997    1.0132974  -0.22689142    1.3456911   421400 
    8000   0.89552122  -0.22178693  -0.22178693    1.1214917   0.98157975  -0.22178693    1.3432786   421400 
    9000   0.89583583  -0.21864828  -0.21864828    1.1251023   0.95655843  -0.21864828    1.3437506   421400 
   10000   0.89710066  -0.21394776  -0.21394776       1.1317   0.93876329  -0.21394776    1.3456478   421400 
   11000   0.89611495  -0.20986734  -0.20986734    1.1343019   0.92375295  -0.20986734    1.3441692   421400 
   12000   0.89740533  -0.20529461  -0.20529461    1.1408102   0.91400608  -0.20529461    1.3461048   421400 
   13000   0.89996538  -0.20345488  -0.20345488      1.14649   0.90228974  -0.20345488    1.3499449   421400 
   14000   0.89841522  -0.20171582  -0.20171582    1.1459038   0.89332787  -0.20171582    1.3476196   421400 
   15000    0.8986311    -0.199698    -0.199698    1.1482455   0.88402313    -0.199698    1.3479435   421400 
   16000   0.89871529  -0.19797213  -0.19797213    1.1500976   0.87841797  -0.19797213    1.3480697   421400 
   17000    0.8992676  -0.19555277  -0.19555277    1.1533454   0.87557486  -0.19555277    1.3488982   421400 
   18000   0.89957939  -0.19663646  -0.19663646    1.1527294   0.86564708  -0.19663646    1.3493659   421400 
   19000   0.89746665  -0.19495058  -0.19495058    1.1512462   0.86359141  -0.19495058    1.3461968   421400 
   20000   0.89864377  -0.19431843  -0.19431843     1.153644   0.86275832  -0.19431843    1.3479625   421400 
   21000   0.90146736  -0.19278068  -0.19278068    1.1594171   0.86026146  -0.19278068    1.3521978   421400 
   22000   0.90161778  -0.19350774  -0.19350774    1.1589157   0.85530759  -0.19350774    1.3524235   421400 
   23000   0.90154661  -0.19288133  -0.19288133    1.1594354   0.85389991  -0.19288133    1.3523167   421400 
   24000   0.89846812  -0.19146638  -0.19146638    1.1562326   0.85342441  -0.19146638     1.347699   421400 
   25000   0.90019799  -0.19195558  -0.19195558    1.1583382     0.851996  -0.19195558    1.3502938   421400 
   26000   0.89841007  -0.19147497  -0.19147497    1.1561369   0.85136656  -0.19147497    1.3476119   421400 
   27000   0.90005596  -0.19239184  -0.19239184    1.1576889    0.8486109  -0.19239184    1.3500807   421400 
   28000   0.90056213  -0.19120292  -0.19120292    1.1596371   0.84981856  -0.19120292      1.35084   421400 
   29000   0.89982806  -0.19200125  -0.19200125    1.1577376   0.84549456  -0.19200125    1.3497389   421400 
   30000   0.90032373  -0.19069495  -0.19069495    1.1597874   0.84853736  -0.19069495    1.3504824   421400 
   31000   0.89930208  -0.19163119  -0.19163119    1.1573187   0.84433322  -0.19163119    1.3489499   421400 
   32000    0.9007786  -0.18985955  -0.18985955    1.1613051   0.84833963  -0.18985955    1.3511647   421400 
   33000   0.90067934  -0.19073575  -0.19073575    1.1602801   0.84650951  -0.19073575    1.3510158   421400 
   34000   0.90011135  -0.19088945  -0.19088945    1.1592744   0.84623313  -0.19088945    1.3501638   421400 
   35000   0.90022506  -0.19033279  -0.19033279    1.1600016   0.84555397  -0.19033279    1.3503344   421400 
   36000   0.89890772  -0.19030058  -0.19030058    1.1580578   0.84496644  -0.19030058    1.3483584   421400 
   37000    0.8991655  -0.19233656  -0.19233656    1.1564085   0.84158081  -0.19233656     1.348745   421400 
   38000    0.8990401  -0.19108416  -0.19108416    1.1574728   0.84289796  -0.19108416    1.3485569   421400 
   39000   0.89878089    -0.191284    -0.191284    1.1568841   0.84290384    -0.191284    1.3481681   421400 
   40000   0.89838484  -0.18984951  -0.18984951    1.1577246   0.84545142  -0.18984951    1.3475741   421400 
   41000   0.90076915  -0.19052249  -0.19052249     1.160628   0.84531051  -0.19052249    1.3511505   421400 
   42000    0.8998775  -0.19069973  -0.19069973    1.1591133   0.84350324  -0.19069973     1.349813   421400 
   43000   0.89955292  -0.19021062  -0.19021062    1.1591156   0.84437438  -0.19021062    1.3493262   421400 
   44000   0.89976712  -0.19127782  -0.19127782    1.1583697   0.84051615  -0.19127782    1.3496475   421400 
   45000   0.90038765  -0.18942795  -0.18942795    1.1611503   0.84755035  -0.18942795    1.3505783   421400 
   46000   0.89923849  -0.19094058  -0.19094058     1.157914   0.84340195  -0.19094058    1.3488545   421400 
   47000   0.90045439   -0.1904028   -0.1904028    1.1602756   0.84529108   -0.1904028    1.3506784   421400 
   48000     0.899727  -0.18811829  -0.18811829     1.161469   0.85012399  -0.18811829    1.3495873   421400 
   49000   0.90062319  -0.19028492  -0.19028492    1.1606467   0.84357325  -0.19028492    1.3509316   421400 
   50000    0.8983872  -0.18948115  -0.18948115    1.1580964   0.84586129  -0.18948115    1.3475776   421400 
   51000   0.90086378  -0.19056795  -0.19056795    1.1607245   0.84387523  -0.19056795    1.3512925   421400 
   52000   0.89843723  -0.19000536  -0.19000536    1.1576473   0.84483206  -0.19000536    1.3476526   421400 
   53000    0.8999587  -0.19015145  -0.19015145    1.1597834    0.8448853  -0.19015145    1.3499349   421400 
   54000    0.8999675  -0.19045263  -0.19045263    1.1594954   0.84599913  -0.19045263    1.3499481   421400 
   55000   0.89951873   -0.1907995   -0.1907995    1.1584754   0.84377581   -0.1907995    1.3492749   421400 
   56000   0.89890305  -0.19034119  -0.19034119    1.1580102   0.84407462  -0.19034119    1.3483514   421400 
   57000    0.9002425  -0.19093085  -0.19093085    1.1594297   0.84549553  -0.19093085    1.3503605   421400 
   58000    0.8999189  -0.19077132  -0.19077132    1.1591038   0.84286179  -0.19077132    1.3498752   421400 
   59000   0.89982817  -0.18989545  -0.18989545    1.1598436   0.84500816  -0.18989545    1.3497391   421400 
   60000   0.89978323  -0.18965369  -0.18965369     1.160018   0.84648494  -0.18965369    1.3496716   421400 
   61000   0.89987136  -0.19011367  -0.19011367    1.1596902   0.84521796  -0.19011367    1.3498038   421400 
   62000   0.89922354  -0.18933354  -0.18933354    1.1594986   0.84691272  -0.18933354    1.3488321   421400 
   63000   0.89978475  -0.18987269  -0.18987269    1.1598012   0.84426997  -0.18987269    1.3496739   421400 
   64000    0.9006962   -0.1896597   -0.1896597    1.1613814   0.84669974   -0.1896597    1.3510411   421400 
   65000   0.90122001  -0.18931721  -0.18931721    1.1625096   0.84822502  -0.18931721    1.3518268   421400 
   66000   0.90239975  -0.18944868  -0.18944868    1.1641477   0.84798989  -0.18944868    1.3535964   421400 
   67000   0.90090171  -0.19171138  -0.19171138     1.159638   0.84018406  -0.19171138    1.3513494   421400 
   68000   0.89972898  -0.19059968  -0.19059968    1.1589906   0.84281722  -0.19059968    1.3495903   421400 
   69000    0.8984105  -0.19035085  -0.19035085    1.1572617   0.84278211  -0.19035085    1.3476125   421400 
   70000     0.901344  -0.19080691  -0.19080691    1.1612059   0.84390827  -0.19080691    1.3520128   421400 
   71000     0.899883  -0.19033648  -0.19033648    1.1594848   0.84493043  -0.19033648    1.3498213   421400 
   72000   0.89963096  -0.18989257  -0.18989257    1.1595507   0.84609882  -0.18989257    1.3494432   421400 
   73000   0.90069552  -0.18965281  -0.18965281    1.1613873   0.84635875  -0.18965281    1.3510401   421400 
   74000   0.90155651  -0.19114704  -0.19114704    1.1611845   0.84333619  -0.19114704    1.3523316   421400 
   75000   0.90127041  -0.18961527  -0.18961527    1.1622871   0.84652224  -0.18961527    1.3519024   421400 
   76000   0.90315725  -0.18920136  -0.18920136    1.1655313   0.84903775  -0.18920136    1.3547327   421400 
   77000   0.90012346  -0.18991739  -0.18991739    1.1602646   0.84558389  -0.18991739     1.350182   421400 
   78000   0.90111109  -0.19116979  -0.19116979    1.1604936   0.84312226  -0.19116979    1.3516634   421400 
   79000   0.90122517  -0.18997131  -0.18997131    1.1618632   0.84338576  -0.18997131    1.3518345   421400 
   80000   0.89994374  -0.19067339  -0.19067339     1.159239    0.8445118  -0.19067339    1.3499124   421400 
   81000   0.90085582  -0.19017337  -0.19017337    1.1611072   0.84475565  -0.19017337    1.3512805   421400 
   82000   0.89961721   -0.1907325   -0.1907325    1.1586901   0.84517733   -0.1907325    1.3494226   421400 
   83000   0.89918425   -0.1904038   -0.1904038    1.1583694   0.84475634   -0.1904038    1.3487732   421400 
   84000   0.89887035  -0.18927319  -0.18927319    1.1590291   0.84688689  -0.18927319    1.3483023   421400 
   85000   0.90035562  -0.19001016  -0.19001016    1.1605201   0.84495244  -0.19001016    1.3505302   421400 
   86000   0.90151454  -0.18968356  -0.18968356     1.162585   0.84624198  -0.18968356    1.3522686   421400 
   87000   0.90018734   -0.1902713   -0.1902713    1.1600065   0.84541509   -0.1902713    1.3502778   421400 
   88000    0.8992372  -0.19175499  -0.19175499    1.1570976   0.84005304  -0.19175499    1.3488526   421400 
   89000    0.8990418  -0.18949754  -0.18949754     1.159062   0.84627217  -0.18949754    1.3485595   421400 
   90000   0.89967004  -0.19086914  -0.19086914    1.1586327   0.84335517  -0.19086914    1.3495019   421400 
   91000   0.90126145  -0.19063234  -0.19063234    1.1612566   0.84422002  -0.19063234     1.351889   421400 
   92000   0.89919008  -0.19027269  -0.19027269    1.1585092   0.84551525  -0.19027269    1.3487819   421400 
   93000   0.89908211  -0.19015151  -0.19015151    1.1584685   0.84539487  -0.19015151      1.34862   421400 
   94000   0.89903964  -0.19038265  -0.19038265    1.1581736   0.84343249  -0.19038265    1.3485563   421400 
   95000   0.89976252  -0.19049663  -0.19049663    1.1591439   0.84312656  -0.19049663    1.3496406   421400 
   96000   0.90188438  -0.19028097  -0.19028097    1.1625424   0.84532664  -0.19028097    1.3528234   421400 
   97000   0.89963565  -0.18983535  -0.18983535    1.1596149   0.84650055  -0.18983535    1.3494503   421400 
   98000   0.90143609   -0.1921231   -0.1921231    1.1600278   0.83918381   -0.1921231    1.3521509   421400 
   99000   0.89993382  -0.18961378  -0.18961378    1.1602838   0.84406597  -0.18961378    1.3498975   421400 
  100000    0.8986194  -0.18929959  -0.18929959    1.1586263   0.84780101  -0.18929959    1.3479259   421400 
  101000   0.89963039  -0.18963225  -0.18963225    1.1598101    0.8454328  -0.18963225    1.3494424   421400 
  102000   0.89829839  -0.19034903  -0.19034903    1.1570954   0.84410647  -0.19034903    1.3474444   421400 
  103000   0.90017715  -0.19075654  -0.19075654     1.159506   0.84395825  -0.19075654    1.3502625   421400 
  104000    0.9003726  -0.18949036  -0.18949036    1.1610653   0.84640028  -0.18949036    1.3505557   421400 
  105000   0.90138156  -0.19054201  -0.19054201    1.1615271     0.844518  -0.19054201    1.3520691   421400 
  106000   0.90163083  -0.18924077  -0.18924077    1.1632023   0.84926477  -0.18924077     1.352443   421400 
  107000   0.90073521  -0.19179327  -0.19179327    1.1593063   0.83888505  -0.19179327    1.3510996   421400 
  108000    0.9004161  -0.18981742  -0.18981742    1.1608035   0.84520852  -0.18981742    1.3506209   421400 
  109000   0.89897328  -0.19116361  -0.19116361    1.1572931   0.84233785  -0.19116361    1.3484567   421400 
  110000   0.89869101  -0.19068106  -0.19068106    1.1573523   0.84265095  -0.19068106    1.3480333   421400 
  111000    0.9003175  -0.19099988  -0.19099988    1.1594732   0.84194372  -0.19099988     1.350473   421400 
  112000   0.89968762  -0.18939697  -0.18939697    1.1601312   0.84812877  -0.18939697    1.3495282   421400 
  113000   0.90203673  -0.18961511  -0.18961511    1.1634368   0.84668768  -0.18961511    1.3530519   421400 
  114000   0.90322504  -0.18947798  -0.18947798    1.1653564   0.84758686  -0.18947798    1.3548343   421400 
  115000   0.90025662  -0.19081549  -0.19081549    1.1595662   0.84243256  -0.19081549    1.3503817   421400 
  116000   0.90033338  -0.19028744  -0.19028744    1.1602094   0.84665466  -0.19028744    1.3504969   421400 
  117000    0.8991767  -0.19115416  -0.19115416    1.1576077   0.84127336  -0.19115416    1.3487618   421400 
  118000   0.89789818   -0.1908642   -0.1908642    1.1559799   0.84260901   -0.1908642    1.3468441   421400 
  119000   0.90063123  -0.19015279  -0.19015279    1.1607909   0.84545041  -0.19015279    1.3509436   421400 
  120000   0.89975166  -0.19041589  -0.19041589    1.1592084   0.84563237  -0.19041589    1.3496243   421400 
  121000   0.89919654  -0.19113916  -0.19113916    1.1576525   0.84197247  -0.19113916    1.3487916   421400 
  122000   0.90184561  -0.19041501  -0.19041501    1.1623502   0.84475593  -0.19041501    1.3527652   421400 
  123000   0.90241276  -0.19013616  -0.19013616    1.1634798   0.84660723  -0.19013616    1.3536159   421400 
  124000   0.90176549  -0.19022252  -0.19022252    1.1624225   0.84609706  -0.19022252     1.352645   421400 
  125000    0.9018867  -0.19106737  -0.19106737    1.1617595    0.8437421  -0.19106737    1.3528268   421400 
  126000   0.90048587  -0.19099976  -0.19099976    1.1597258   0.84138451  -0.19099976    1.3507256   421400 
  127000   0.90109051  -0.19047071  -0.19047071    1.1611618   0.84405582  -0.19047071    1.3516326   421400 
  128000   0.89708609   -0.1898285   -0.1898285    1.1557974    0.8438027   -0.1898285    1.3456259   421400 
  129000     0.900334  -0.19139615  -0.19139615    1.1591016   0.84138641  -0.19139615    1.3504978   421400 
  130000   0.89854861  -0.18943408  -0.18943408    1.1583856   0.84661244  -0.18943408    1.3478197   421400 
  131000   0.90108639  -0.19003513  -0.19003513    1.1615912   0.84576131  -0.19003513    1.3516264   421400 
  132000   0.89966251   -0.1913565   -0.1913565    1.1581341   0.83992475   -0.1913565    1.3494906   421400 
  133000    0.8981188  -0.18980655  -0.18980655    1.1573685   0.84341307  -0.18980655     1.347175   421400 
  134000   0.89983623  -0.19060385  -0.19060385    1.1591473    0.8444836  -0.19060385    1.3497511   421400 
  135000   0.89846857  -0.18994159  -0.18994159    1.1577581   0.84273757  -0.18994159    1.3476997   421400 
  136000   0.89776854  -0.18888034  -0.18888034    1.1577693   0.84812167  -0.18888034    1.3466496   421400 
  137000   0.90099444  -0.19079978  -0.19079978    1.1606887   0.84308506  -0.19079978    1.3514884   421400 
  138000   0.89979984  -0.19096525  -0.19096525    1.1587313   0.84280046  -0.19096525    1.3496966   421400 
  139000   0.90068983  -0.19086348  -0.19086348    1.1601681   0.84219915  -0.19086348    1.3510315   421400 
  140000   0.90014916  -0.19010139  -0.19010139    1.1601191   0.84427177  -0.19010139    1.3502205   421400 
  141000   0.90010064   -0.1905061   -0.1905061    1.1596417   0.84464521   -0.1905061    1.3501478   421400 
  142000   0.90094941  -0.19068078  -0.19068078    1.1607401   0.84420577  -0.19068078    1.3514209   421400 
  143000   0.90163707  -0.18900093  -0.18900093    1.1634515   0.84834141  -0.18900093    1.3524524   421400 
  144000    0.9017245  -0.18922962  -0.18922962    1.1633539   0.84866523  -0.18922962    1.3525835   421400 
  145000   0.90133313  -0.19019224  -0.19019224    1.1618042   0.84434896  -0.19019224    1.3519965   421400 
  146000    0.8991946  -0.18992253  -0.18992253    1.1588662   0.84577144  -0.18992253    1.3487887   421400 
  147000   0.89889529  -0.19089418  -0.19089418    1.1574455   0.84181765  -0.19089418    1.3483397   421400 
  148000   0.89850169  -0.19048459  -0.19048459    1.1572647   0.84426153  -0.19048459    1.3477493   421400 
  149000   0.89993968  -0.18995898  -0.18995898    1.1599473   0.84407284  -0.18995898    1.3499063   421400 
  150000    0.8994673  -0.19028783  -0.19028783    1.1589099   0.84407207  -0.19028783    1.3491977   421400 
  151000   0.90085283  -0.19136024  -0.19136024    1.1599158   0.84214407  -0.19136024     1.351276   421400 
  152000   0.90021823  -0.18986624  -0.18986624    1.1604579   0.84647783  -0.18986624    1.3503241   421400 
  153000   0.90015054  -0.19025204  -0.19025204    1.1599706   0.84486359  -0.19025204    1.3502226   421400 
  154000   0.90166856  -0.18964813  -0.18964813    1.1628515    0.8462107  -0.18964813    1.3524996   421400 
  155000   0.90050275  -0.19080344  -0.19080344    1.1599475   0.84401244  -0.19080344    1.3507509   421400 
  156000   0.90069406  -0.18992385  -0.18992385     1.161114   0.84562577  -0.18992385    1.3510379   421400 
  157000   0.90089639  -0.19008213  -0.19008213    1.1612592   0.84494862  -0.19008213    1.3513414   421400 
  158000   0.90190563  -0.18967558  -0.18967558    1.1631797   0.84692616  -0.18967558    1.3528552   421400 
  159000   0.90126187  -0.19060837  -0.19060837    1.1612812   0.84641216  -0.19060837    1.3518896   421400 
  160000    0.9006832  -0.19072112  -0.19072112    1.1603005   0.84505807  -0.19072112    1.3510216   421400 
  161000   0.90051725  -0.19066924  -0.19066924    1.1601034   0.84577706  -0.19066924    1.3507727   421400 
  162000    0.8977632  -0.19094847  -0.19094847    1.1556931   0.84144163  -0.19094847    1.3466416   421400 
  163000   0.89885561  -0.19010599  -0.19010599    1.1581742     0.845296  -0.19010599    1.3482802   421400 
  164000   0.89952584  -0.18939112  -0.18939112    1.1598944    0.8464963  -0.18939112    1.3492856   421400 
  165000   0.90027626  -0.19028337  -0.19028337    1.1601278   0.84519789  -0.19028337    1.3504112   421400 
  166000   0.89878855  -0.19070324  -0.19070324    1.1574764   0.84438663  -0.19070324    1.3481796   421400 
  167000    0.9016479  -0.19083896  -0.19083896    1.1616297   0.84184211  -0.19083896    1.3524686   421400 
  168000   0.89889165  -0.18945298  -0.18945298    1.1588813   0.84613402  -0.18945298    1.3483343   421400 
  169000   0.89976244  -0.19066457  -0.19066457    1.1589759   0.84364957  -0.19066457    1.3496405   421400 
  170000    0.8981511  -0.18997143  -0.18997143     1.157252    0.8430697  -0.18997143    1.3472235   421400 
  171000   0.89838507  -0.19000844  -0.19000844     1.157566   0.84362464  -0.19000844    1.3475744   421400 
  172000   0.89885195  -0.19072593  -0.19072593    1.1575488   0.84262415  -0.19072593    1.3482747   421400 
  173000   0.89988209  -0.19054124  -0.19054124    1.1592787   0.84335376  -0.19054124    1.3498199   421400 
  174000   0.89772257  -0.18923981  -0.18923981    1.1573408   0.84484315  -0.18923981    1.3465807   421400 
  175000   0.89964424  -0.19019222  -0.19019222    1.1592709   0.84482678  -0.19019222    1.3494632   421400 
  176000   0.90092763  -0.19048494  -0.19048494    1.1609033   0.84377284  -0.19048494    1.3513882   421400 
  177000   0.90175946  -0.19019388  -0.19019388    1.1624421   0.84658737  -0.19019388     1.352636   421400 
  178000   0.89953722  -0.18809134  -0.18809134    1.1612113   0.84982658  -0.18809134    1.3493026   421400 
  179000   0.90101153   -0.1893385   -0.1893385    1.1621756   0.84787836   -0.1893385    1.3515141   421400 
  180000   0.90079693  -0.18937367  -0.18937367    1.1618185   0.84768135  -0.18937367    1.3511922   421400 
  181000   0.90076619  -0.19024856  -0.19024856    1.1608975   0.84372074  -0.19024856    1.3511461   421400 
  182000   0.89917718  -0.18982729  -0.18982729    1.1589353   0.84441594  -0.18982729    1.3487626   421400 
  183000   0.89935974  -0.19022291  -0.19022291    1.1588135   0.84505492  -0.19022291    1.3490364   421400 
  184000   0.90022131  -0.18893315  -0.18893315    1.1613956   0.84925787  -0.18893315    1.3503288   421400 
  185000     0.901308  -0.18984237  -0.18984237    1.1621164   0.84747345  -0.18984237    1.3519588   421400 
  186000   0.89962172  -0.18923922  -0.18923922    1.1601902   0.84787479  -0.18923922    1.3494294   421400 
  187000   0.90164573  -0.19021814  -0.19021814    1.1622472   0.84471876  -0.19021814    1.3524654   421400 
  188000   0.90121998  -0.18932813  -0.18932813    1.1624986   0.84745576  -0.18932813    1.3518268   421400 
  189000   0.89982343  -0.18902445  -0.18902445    1.1607075   0.84844077  -0.18902445    1.3497319   421400 
  190000   0.89997557  -0.18951524  -0.18951524    1.1604449   0.84639728  -0.18951524    1.3499602   421400 
  191000   0.90084285  -0.18971971  -0.18971971    1.1615414   0.84637727  -0.18971971    1.3512611   421400 
  192000   0.90184141   -0.1901263   -0.1901263    1.1626326   0.84450695   -0.1901263    1.3527589   421400 
  193000    0.9007443  -0.19075936  -0.19075936    1.1603539   0.84403917  -0.19075936    1.3511132   421400 
  194000    0.8998427  -0.18956043  -0.18956043    1.1602004   0.84641149  -0.18956043    1.3497609   421400 
  195000    0.9005343  -0.18944996  -0.18944996    1.1613483   0.84687747  -0.18944996    1.3507982   421400 
  196000   0.89958665   -0.1901352   -0.1901352    1.1592416   0.84554789   -0.1901352    1.3493768   421400 
  197000   0.90105021  -0.19020858  -0.19020858    1.1613635   0.84541242  -0.19020858    1.3515721   421400 
  198000   0.90296485  -0.19100109  -0.19100109     1.163443   0.84151938  -0.19100109    1.3544441   421400 
  199000   0.90061514    -0.189825    -0.189825    1.1610945   0.84711722    -0.189825    1.3509195   421400 
  200000   0.90056697  -0.19081717  -0.19081717    1.1600301   0.84448227  -0.19081717    1.3508472   421400 
  201000   0.89915592  -0.18987694  -0.18987694    1.1588537   0.84622084  -0.18987694    1.3487307   421400 
  202000   0.89905921  -0.18961278  -0.18961278    1.1589728   0.84598982  -0.18961278    1.3485856   421400 
  203000   0.89989562  -0.18989145  -0.18989145    1.1599488   0.84573453  -0.18989145    1.3498402   421400 
  204000   0.89983092  -0.18991786  -0.18991786    1.1598253   0.84496041  -0.18991786    1.3497432   421400 
  205000   0.89942932  -0.19032788  -0.19032788    1.1588129   0.84275998  -0.19032788    1.3491408   421400 
  206000   0.89894206  -0.18927379  -0.18927379    1.1591361   0.84660439  -0.18927379    1.3484099   421400 
  207000   0.90012579  -0.19030446  -0.19030446     1.159881   0.84464267  -0.19030446    1.3501855   421400 
  208000   0.90051733  -0.18967223  -0.18967223    1.1611006   0.84413435  -0.18967223    1.3507728   421400 
  209000   0.90175453  -0.19073214  -0.19073214    1.1618965   0.84250539  -0.19073214    1.3526286   421400 
  210000   0.90132915  -0.19056292  -0.19056292    1.1614276   0.84376548  -0.19056292    1.3519905   421400 
  211000   0.90013495  -0.18886416  -0.18886416    1.1613351   0.84765968  -0.18886416    1.3501992   421400 
  212000   0.89943686  -0.18952152  -0.18952152    1.1596306   0.84647463  -0.18952152    1.3491521   421400 
  213000   0.90162648  -0.19022154  -0.19022154     1.162215   0.84617568  -0.19022154    1.3524365   421400 
  214000   0.89907493  -0.19028001  -0.19028001    1.1583292   0.84493836  -0.19028001    1.3486092   421400 
  215000   0.90174527   -0.1911925   -0.1911925    1.1614222   0.84306965   -0.1911925    1.3526147   421400 
  216000   0.89996211  -0.18957394  -0.18957394     1.160366   0.84606742  -0.18957394      1.34994   421400 
  217000   0.89958753   -0.1895233   -0.1895233    1.1598548   0.84602798   -0.1895233    1.3493781   421400 
  218000   0.90081012  -0.18907018  -0.18907018    1.1621418   0.84799954  -0.18907018     1.351212   421400 
  219000   0.89867155  -0.18991609  -0.18991609     1.158088   0.84450294  -0.18991609    1.3480041   421400 
  220000   0.90001422  -0.19040118  -0.19040118    1.1596169   0.84340599  -0.19040118    1.3500181   421400 
  221000   0.89928645   -0.1891983   -0.1891983    1.1597282   0.84816017   -0.1891983    1.3489265   421400 
  222000   0.90048445  -0.19024978  -0.19024978    1.1604737   0.84501612  -0.19024978    1.3507235   421400 
  223000    0.8999773  -0.19091538  -0.19091538    1.1590474   0.84222803  -0.19091538    1.3499627   421400 
  224000   0.89907051  -0.19048894  -0.19048894    1.1581136   0.84424589  -0.19048894    1.3486026   421400 
  225000   0.89981111  -0.18991204  -0.18991204    1.1598014   0.84525882  -0.18991204    1.3497135   421400 
  226000   0.89939131  -0.18977147  -0.18977147    1.1593123   0.84422371  -0.18977147    1.3490838   421400 
  227000   0.90002543  -0.19024992  -0.19024992     1.159785   0.84346631  -0.19024992    1.3500349   421400 
  228000   0.90027072  -0.19080437  -0.19080437    1.1595985   0.84557857  -0.19080437    1.3504029   421400 
  229000     0.899616   -0.1918109   -0.1918109    1.1576099   0.84000856   -0.1918109    1.3494208   421400 
  230000   0.89969149  -0.19040574  -0.19040574    1.1591283   0.84216716  -0.19040574     1.349534   421400 
  231000    0.8990291  -0.18992011  -0.18992011    1.1586203   0.84556095  -0.18992011    1.3485405   421400 
  232000   0.89718571   -0.1889859   -0.1889859    1.1567895   0.84666197   -0.1889859    1.3457754   421400 
  233000   0.90024607  -0.19044322  -0.19044322    1.1599227   0.84475225  -0.19044322    1.3503659   421400 
  234000   0.90075345  -0.19020242  -0.19020242    1.1609246   0.84547377  -0.19020242     1.351127   421400 
  235000   0.89936312  -0.18928352  -0.18928352     1.159758   0.84675814  -0.18928352    1.3490415   421400 
  236000   0.90050951  -0.19021429  -0.19021429    1.1605468   0.84633569  -0.19021429    1.3507611   421400 
  237000   0.89978676  -0.19080079  -0.19080079    1.1588761   0.84262325  -0.19080079    1.3496769   421400 
  238000   0.90044732  -0.19173632  -0.19173632    1.1589315   0.84210355  -0.19173632    1.3506678   421400 
  239000   0.90114074  -0.18974878  -0.18974878    1.1619591   0.84456285  -0.18974878    1.3517079   421400 
  240000    0.8994777    -0.189344    -0.189344    1.1598694   0.84647823    -0.189344    1.3492133   421400 
  241000   0.89865467  -0.19081427  -0.19081427    1.1571645   0.84212863  -0.19081427    1.3479788   421400 
  242000   0.89892105   -0.1892643   -0.1892643    1.1591141   0.84879689   -0.1892643    1.3483784   421400 
  243000   0.89965569  -0.19001757  -0.19001757    1.1594628   0.84480383  -0.19001757    1.3494803   421400 
  244000   0.89967833  -0.18990498  -0.18990498    1.1596093   0.84756975  -0.18990498    1.3495143   421400 
  245000   0.90243662   -0.1890575   -0.1890575    1.1645942   0.84851757   -0.1890575    1.3536517   421400 
  246000   0.90076478  -0.18948823  -0.18948823    1.1616557   0.84782345  -0.18948823     1.351144   421400 
  247000   0.90272742  -0.18940934  -0.18940934    1.1646786   0.84725045  -0.18940934    1.3540879   421400 
  248000   0.90094494  -0.19015392  -0.19015392    1.1612603   0.84415932  -0.19015392    1.3514142   421400 
  249000   0.90088979  -0.18947871  -0.18947871    1.1618528   0.84649718  -0.18947871    1.3513315   421400 
  250000   0.90027044  -0.19078748  -0.19078748     1.159615   0.84324217  -0.19078748    1.3504025   421400 
  251000   0.90029153  -0.19093928  -0.19093928    1.1594948   0.84276353  -0.19093928    1.3504341   421400 
  252000   0.89823765  -0.19027861  -0.19027861    1.1570747   0.84407619  -0.19027861    1.3473533   421400 
  253000   0.89958481   -0.1898121   -0.1898121    1.1595619   0.84469157   -0.1898121     1.349374   421400 
  254000    0.8985615   -0.1920658   -0.1920658    1.1557732   0.83971543   -0.1920658     1.347839   421400 
  255000   0.89788141  -0.19081128  -0.19081128    1.1560076   0.84161003  -0.19081128    1.3468189   421400 
  256000    0.8993108  -0.19103431  -0.19103431    1.1579287   0.84252498  -0.19103431     1.348963   421400 
  257000   0.89853437  -0.19108894  -0.19108894    1.1567094   0.84071929  -0.19108894    1.3477984   421400 
  258000   0.89953572  -0.19102515  -0.19102515    1.1582752   0.84276632  -0.19102515    1.3493004   421400 
  259000   0.89989778  -0.19049711  -0.19049711    1.1593464   0.84363228  -0.19049711    1.3498435   421400 
  260000   0.90026912   -0.1901386   -0.1901386    1.1602619   0.84444507   -0.1901386    1.3504005   421400 
  261000   0.89998891  -0.19042698  -0.19042698    1.1595532   0.84394929  -0.19042698    1.3499802   421400 
  262000   0.89962948  -0.19040765  -0.19040765    1.1590334   0.84500441  -0.19040765     1.349441   421400 
  263000   0.90006491  -0.19128288  -0.19128288    1.1588113    0.8424864  -0.19128288    1.3500942   421400 
  264000   0.89908156  -0.18927872  -0.18927872    1.1593404   0.84597212  -0.18927872    1.3486191   421400 
  265000   0.90020515  -0.19066161  -0.19066161    1.1596429   0.84229139  -0.19066161    1.3503045   421400 
  266000   0.90160975  -0.19051991  -0.19051991    1.1618915   0.84577092  -0.19051991    1.3524114   421400 
  267000   0.90091271  -0.19059552  -0.19059552    1.1607703   0.84435819  -0.19059552    1.3513659   421400 
  268000   0.90178227  -0.19020577  -0.19020577    1.1624644   0.84609357  -0.19020577    1.3526702   421400 
  269000   0.90053194  -0.19095457  -0.19095457    1.1598401   0.84314482  -0.19095457    1.3507947   421400 
  270000   0.90000224  -0.18906185  -0.18906185    1.1609383   0.84841271  -0.18906185    1.3500002   421400 
  271000   0.90032747  -0.19076424  -0.19076424    1.1597237   0.84338166  -0.19076424     1.350488   421400 
  272000   0.90055905  -0.18930977  -0.18930977    1.1615256   0.84727057  -0.18930977    1.3508354   421400 
  273000    0.9024455  -0.19092757  -0.19092757    1.1627375   0.84169511  -0.19092757     1.353665   421400 
  274000   0.89951746  -0.19006863  -0.19006863    1.1592044   0.84613689  -0.19006863     1.349273   421400 
  275000   0.89943331  -0.19062345  -0.19062345    1.1585233   0.84308653  -0.19062345    1.3491468   421400 
  276000   0.89952394    -0.190178    -0.190178    1.1591047   0.84412203    -0.190178    1.3492827   421400 
  277000    0.9010422  -0.18938956  -0.18938956    1.1621705   0.84838907  -0.18938956    1.3515601   421400 
  278000   0.90089465  -0.19064558  -0.19064558    1.1606932   0.84384025  -0.19064558    1.3513388   421400 
  279000   0.90079491  -0.19028371  -0.19028371    1.1609054   0.84394969  -0.19028371    1.3511892   421400 
  280000   0.89916086  -0.18923095  -0.18923095    1.1595071   0.84666407  -0.18923095    1.3487381   421400 
  281000   0.89932163  -0.19035033  -0.19035033    1.1586289   0.84282422  -0.19035033    1.3489792   421400 
  282000   0.89934952  -0.19105786  -0.19105786    1.1579632   0.84190152  -0.19105786    1.3490211   421400 
  283000   0.89945167  -0.19077656  -0.19077656    1.1583977   0.84171781  -0.19077656    1.3491743   421400 
  284000   0.90055035  -0.19023144  -0.19023144    1.1605909   0.84617342  -0.19023144    1.3508223   421400 
  285000   0.90096322    -0.190516    -0.190516    1.1609256   0.84398259    -0.190516    1.3514416   421400 
  286000   0.90043161  -0.18954939  -0.18954939    1.1610948   0.84649595  -0.18954939    1.3506442   421400 
  287000   0.89953697  -0.18998304  -0.18998304    1.1593192   0.84540695  -0.18998304    1.3493023   421400 
  288000   0.90084627  -0.19016697  -0.19016697    1.1610992   0.84566052  -0.19016697    1.3512662   421400 
  289000   0.90021544  -0.19096875  -0.19096875    1.1593512   0.84140144  -0.19096875      1.35032   421400 
  290000   0.90049872  -0.19022493  -0.19022493      1.16052   0.84437965  -0.19022493    1.3507449   421400 
  291000   0.90112046  -0.19102696  -0.19102696    1.1606505   0.84238672  -0.19102696    1.3516775   421400 
  292000   0.89952741  -0.18939158  -0.18939158    1.1598963   0.84716825  -0.18939158    1.3492879   421400 
  293000   0.89815843  -0.19047004  -0.19047004    1.1567644   0.84329196  -0.19047004    1.3472344   421400 
  294000   0.89990197  -0.19146189  -0.19146189    1.1583879   0.84204189  -0.19146189    1.3498498   421400 
  295000   0.89753413  -0.19117848  -0.19117848    1.1551195    0.8407314  -0.19117848     1.346298   421400 
  296000   0.89835972  -0.18952216  -0.18952216    1.1580142   0.84606294  -0.18952216    1.3475364   421400 
  297000   0.89942481  -0.19037717  -0.19037717    1.1587568   0.84646001  -0.19037717     1.349134   421400 
  298000    0.9010745  -0.19033327  -0.19033327    1.1612753   0.84604244  -0.19033327    1.3516085   421400 
  299000   0.90119945  -0.19002462  -0.19002462    1.1617713   0.84694382  -0.19002462     1.351796   421400 
  300000   0.90133225  -0.19009371  -0.19009371    1.1619015   0.84686643  -0.19009371    1.3519952   421400 
  301000   0.90091999  -0.18990328  -0.18990328    1.1614735   0.84523769  -0.18990328    1.3513768   421400 
  302000   0.90028683  -0.19014638  -0.19014638    1.1602807   0.84554972  -0.19014638     1.350427   421400 
  303000   0.89884827  -0.18981957  -0.18981957    1.1584496   0.84534913  -0.18981957    1.3482692   421400 
  304000   0.90044345  -0.19160539  -0.19160539    1.1590566   0.84176523  -0.19160539     1.350662   421400 
  305000   0.90090109  -0.19049797  -0.19049797    1.1608505   0.84420724  -0.19049797    1.3513484   421400 
  306000   0.90133295  -0.19114251  -0.19114251    1.1608537   0.84342008  -0.19114251    1.3519962   421400 
  307000   0.90102483  -0.19044926  -0.19044926    1.1610848   0.84259482  -0.19044926     1.351534   421400 
  308000   0.89896495   -0.1900197   -0.1900197    1.1584245   0.84532491   -0.1900197    1.3484442   421400 
  309000   0.89836471  -0.19036629  -0.19036629    1.1571776   0.84471777  -0.19036629    1.3475439   421400 
  310000   0.89904344  -0.19166099  -0.19166099     1.156901   0.84272328  -0.19166099     1.348562   421400 
  311000     0.898877  -0.19038373  -0.19038373    1.1579286    0.8445829  -0.19038373    1.3483123   421400 
  312000   0.89944649  -0.18960433  -0.18960433    1.1595622   0.84660977  -0.18960433    1.3491665   421400 
  313000   0.90149167   -0.1894487   -0.1894487    1.1627856   0.84643217   -0.1894487    1.3522343   421400 
  314000   0.90198124  -0.18952926  -0.18952926    1.1634394   0.84683851  -0.18952926    1.3529686   421400 
  315000   0.90050809  -0.18901652  -0.18901652    1.1617424   0.84712347  -0.18901652    1.3507589   421400 
  316000   0.90090662  -0.18952899  -0.18952899    1.1618277   0.84795438  -0.18952899    1.3513567   421400 
  317000   0.90103879  -0.19108727  -0.19108727    1.1604677   0.84200213  -0.19108727     1.351555   421400 
  318000   0.89969713  -0.19115036  -0.19115036    1.1583921    0.8416325  -0.19115036    1.3495425   421400 
  319000   0.89944607  -0.19043308  -0.19043308    1.1587328   0.84215706  -0.19043308    1.3491659   421400 
  320000   0.90180248  -0.18969187  -0.18969187    1.1630086   0.84572603  -0.18969187    1.3527005   421400 
  321000   0.90211138  -0.19000516  -0.19000516    1.1631587   0.84652811  -0.19000516    1.3531639   421400 
  322000   0.90059912  -0.19086545  -0.19086545      1.16003   0.84542306  -0.19086545    1.3508955   421400 
  323000   0.89871213    -0.191134    -0.191134     1.156931   0.84141866    -0.191134     1.348065   421400 
  324000   0.89955949  -0.19115655  -0.19115655    1.1581795    0.8423092  -0.19115655     1.349336   421400 
  325000   0.89869483  -0.18997797  -0.18997797    1.1580611    0.8450267  -0.18997797     1.348039   421400 
  326000   0.89900201   -0.1901363   -0.1901363    1.1583635   0.84543981   -0.1901363    1.3484998   421400 
  327000   0.90098262  -0.19112114  -0.19112114    1.1603496   0.84280858  -0.19112114    1.3514707   421400 
  328000   0.90131345  -0.19036414  -0.19036414    1.1616028   0.84489877  -0.19036414     1.351967   421400 
  329000   0.89917427  -0.18971413  -0.18971413    1.1590441   0.84602508  -0.18971413    1.3487582   421400 
  330000   0.90080293  -0.19049049  -0.19049049    1.1607107   0.84457698  -0.19049049    1.3512012   421400 
  331000   0.90167446  -0.18947925  -0.18947925    1.1630292   0.84660217  -0.18947925    1.3525085   421400 
  332000   0.89998025  -0.19062952  -0.19062952    1.1593376   0.84503155  -0.19062952    1.3499672   421400 
  333000   0.90111113  -0.18984302  -0.18984302    1.1618205   0.84736244  -0.18984302    1.3516635   421400 
  334000   0.90134134  -0.19054227  -0.19054227    1.1614665   0.84376196  -0.19054227    1.3520088   421400 
  335000   0.90203608  -0.19009816  -0.19009816    1.1629527   0.84648819  -0.19009816    1.3530509   421400 
  336000    0.9017926  -0.18995474  -0.18995474    1.1627309   0.84658187  -0.18995474    1.3526857   421400 
  337000   0.90158195  -0.18927118  -0.18927118    1.1630985    0.8475823  -0.18927118    1.3523697   421400 
  338000   0.90006222  -0.19045057  -0.19045057    1.1596396    0.8451456  -0.19045057    1.3500901   421400 
  339000   0.89907855   -0.1895727   -0.1895727    1.1590419   0.84767162   -0.1895727    1.3486146   421400 
  340000   0.89853081  -0.19091532  -0.19091532    1.1568777   0.84240082  -0.19091532     1.347793   421400 
  341000   0.89756389  -0.19016429  -0.19016429    1.1561784    0.8463192  -0.19016429    1.3463426   421400 
  342000    0.8990638  -0.19054607  -0.19054607    1.1580464   0.84206815  -0.19054607    1.3485925   421400 
  343000   0.90001836  -0.18951361  -0.18951361    1.1605107   0.84619678  -0.18951361    1.3500243   421400 
  344000   0.90009046  -0.19050404  -0.19050404    1.1596284   0.84377961  -0.19050404    1.3501325   421400 
  345000   0.90084043  -0.19122325  -0.19122325    1.1600342   0.84220056  -0.19122325    1.3512574   421400 
  346000   0.89894393  -0.19039806  -0.19039806    1.1580146   0.84431075  -0.19039806    1.3484127   421400 
  347000   0.89934259  -0.19090959  -0.19090959    1.1581011   0.84230291  -0.19090959    1.3490107   421400 
  348000   0.89801006  -0.19020161  -0.19020161    1.1568103   0.84345168  -0.19020161    1.3470119   421400 
  349000   0.89884829  -0.19020491  -0.19020491    1.1580643   0.84371484  -0.19020491    1.3482692   421400 
  350000   0.89941363  -0.19012119  -0.19012119    1.1589961   0.84494942  -0.19012119    1.3491172   421400 
  351000   0.89995946  -0.19060082  -0.19060082    1.1593352   0.84408074  -0.19060082     1.349936   421400 
  352000   0.89962095  -0.18999884  -0.18999884    1.1594294   0.84581136  -0.18999884    1.3494282   421400 
  353000   0.90067472  -0.19083699  -0.19083699    1.1601719   0.84238774  -0.19083699    1.3510089   421400 
  354000   0.89987407  -0.19023304  -0.19023304    1.1595749   0.84408204  -0.19023304    1.3498079   421400 
  355000   0.90086421  -0.19081039  -0.19081039    1.1604827   0.84182494  -0.19081039    1.3512931   421400 
  356000   0.90195724  -0.18966399  -0.18966399    1.1632687    0.8474436  -0.18966399    1.3529327   421400 
  357000   0.90068972  -0.18901016  -0.18901016    1.1620212   0.84841394  -0.18901016    1.3510314   421400 
  358000   0.90159238  -0.18987971  -0.18987971    1.1625056   0.84656743  -0.18987971    1.3523854   421400 
  359000   0.90158091  -0.19056269  -0.19056269    1.1618055    0.8448934  -0.19056269    1.3523682   421400 
  360000   0.90046838  -0.19066008  -0.19066008    1.1600393   0.84279698  -0.19066008    1.3506994   421400 
  361000   0.90008196  -0.19048994  -0.19048994    1.1596298   0.84367283  -0.19048994    1.3501197   421400 
  362000   0.89987096  -0.19050973  -0.19050973    1.1592935   0.84365096  -0.19050973    1.3498032   421400 
  363000   0.89967233   -0.1905136   -0.1905136    1.1589917   0.84404248   -0.1905136    1.3495053   421400 
  364000    0.9020251  -0.19180349  -0.19180349    1.1612309   0.84160585  -0.19180349    1.3530344   421400 
  365000   0.90039715  -0.19023358  -0.19023358    1.1603589   0.84504576  -0.19023358    1.3505925   421400 
  366000   0.89909235   -0.1903403   -0.1903403     1.158295   0.84543564   -0.1903403    1.3486353   421400 
  367000   0.90174798  -0.19059739  -0.19059739    1.1620214   0.84327002  -0.19059739    1.3526188   421400 
  368000   0.90068142  -0.18864675  -0.18864675    1.1623722   0.84735199  -0.18864675    1.3510189   421400 
  369000   0.90152663  -0.19007646  -0.19007646    1.1622103   0.84541623  -0.19007646    1.3522867   421400 
  370000   0.90066822  -0.19064666  -0.19064666    1.1603525   0.84309436  -0.19064666    1.3509991   421400 
  371000   0.89979838  -0.19058793  -0.19058793    1.1591064   0.84295864  -0.19058793    1.3496944   421400 
  372000   0.90017707  -0.19028594  -0.19028594    1.1599765   0.84440291  -0.19028594    1.3502624   421400 
  373000   0.90097193  -0.19036388  -0.19036388    1.1610908   0.84689723  -0.19036388    1.3514547   421400 
  374000   0.90041498  -0.18940968  -0.18940968    1.1612096   0.84752813  -0.18940968    1.3506193   421400 
  375000   0.89906621  -0.18985531  -0.18985531    1.1587408   0.84458926  -0.18985531    1.3485961   421400 
  376000   0.89829312  -0.19052925  -0.19052925    1.1569072   0.84409898  -0.19052925    1.3474365   421400 
  377000   0.89837078  -0.19057868  -0.19057868    1.1569743   0.84578167  -0.19057868     1.347553   421400 
  378000   0.90159406  -0.19009316  -0.19009316    1.1622947   0.84514042  -0.19009316    1.3523879   421400 
  379000   0.90028365    -0.190378    -0.190378    1.1600443   0.84558401    -0.190378    1.3504223   421400 
  380000   0.90190028  -0.19126139  -0.19126139    1.1615858   0.84215719  -0.19126139    1.3528472   421400 
  381000   0.89925837  -0.19063414  -0.19063414    1.1582502   0.84298547  -0.19063414    1.3488843   421400 
  382000   0.90074944  -0.19016351  -0.19016351    1.1609575   0.84392338  -0.19016351     1.351121   421400 
  383000   0.90030315  -0.19017602  -0.19017602    1.1602755   0.84372946  -0.19017602    1.3504515   421400 
  384000   0.90053504  -0.18994911  -0.18994911    1.1608502   0.84623833  -0.18994911    1.3507994   421400 
  385000   0.90053575  -0.18999693  -0.18999693    1.1608035   0.84602089  -0.18999693    1.3508004   421400 
  386000   0.89994942  -0.19000495  -0.19000495     1.159916    0.8457669  -0.19000495    1.3499209   421400 
  387000   0.89926643  -0.19099174  -0.19099174    1.1579047   0.84161868  -0.19099174    1.3488965   421400 
  388000   0.90086274  -0.19152085  -0.19152085    1.1597701   0.84154352  -0.19152085    1.3512909   421400 
  389000   0.89918213  -0.19103938  -0.19103938    1.1577306   0.84257119  -0.19103938      1.34877   421400 
  390000   0.89791379  -0.18958028  -0.18958028    1.1572872     0.846248  -0.18958028    1.3468675   421400 
  391000   0.89837742  -0.18950854  -0.18950854    1.1580544   0.84648718  -0.18950854    1.3475629   421400 
  392000   0.89760495  -0.19102242  -0.19102242    1.1553818   0.84077824  -0.19102242    1.3464042   421400 
  393000   0.89996212  -0.19122058  -0.19122058    1.1587194   0.84154559  -0.19122058      1.34994   421400 
  394000   0.89866082  -0.18997605  -0.18997605     1.158012   0.84533965  -0.18997605     1.347988   421400 
  395000   0.90045015   -0.1911468   -0.1911468    1.1595252   0.84245666   -0.1911468     1.350672   421400 
  396000   0.89940155  -0.19077834  -0.19077834    1.1583208   0.84358135  -0.19077834    1.3490991   421400 
  397000    0.8994084  -0.18927553  -0.18927553    1.1598339    0.8453522  -0.18927553    1.3491094   421400 
  398000   0.89905119  -0.19106641  -0.19106641    1.1575072   0.84156596  -0.19106641    1.3485736   421400 
  399000   0.90136199  -0.18992683  -0.18992683    1.1621129   0.84589145  -0.18992683    1.3520398   421400 
  400000   0.90212191  -0.19043403  -0.19043403    1.1627456   0.84375648  -0.19043403    1.3531797   421400 
  401000   0.90082516  -0.19032693  -0.19032693    1.1609076   0.84545852  -0.19032693    1.3512345   421400 
  402000   0.89961324  -0.18909252  -0.18909252    1.1603241    0.8481006  -0.18909252    1.3494167   421400 
  403000   0.90106385  -0.19037557  -0.19037557     1.161217   0.84574831  -0.19037557    1.3515926   421400 
  404000   0.89897201  -0.18974253  -0.18974253    1.1587123   0.84662334  -0.18974253    1.3484548   421400 
  405000   0.89795242  -0.19123226  -0.19123226    1.1556932   0.84173168  -0.19123226    1.3469254   421400 
  406000   0.89922793  -0.19048485  -0.19048485    1.1583538   0.84536462  -0.19048485    1.3488387   421400 
  407000   0.89823652  -0.18901351  -0.18901351    1.1583381   0.84763233  -0.18901351    1.3473516   421400 
  408000   0.89993463  -0.18973322  -0.18973322    1.1601655   0.84797654  -0.18973322    1.3498987   421400 
  409000   0.89892208  -0.18949949  -0.18949949    1.1588804   0.84574743  -0.18949949    1.3483799   421400 
  410000   0.90031619  -0.19056605  -0.19056605     1.159905   0.84424169  -0.19056605    1.3504711   421400 
  411000   0.89903539  -0.18992016  -0.18992016    1.1586297   0.84503918  -0.18992016    1.3485499   421400 
  412000   0.90126833  -0.19029103  -0.19029103    1.1616083   0.84472413  -0.19029103    1.3518993   421400 
  413000   0.90087807  -0.19037839  -0.19037839    1.1609355   0.84535564  -0.19037839    1.3513139   421400 
  414000    0.8988225  -0.18996935  -0.18996935    1.1582612   0.84368076  -0.18996935    1.3482306   421400 
  415000   0.90000659  -0.19073057  -0.19073057    1.1592761   0.84277689  -0.19073057    1.3500067   421400 
  416000   0.89967997  -0.19025337  -0.19025337    1.1592634    0.8432445  -0.19025337    1.3495168   421400 
  417000   0.89972113   -0.1903138   -0.1903138    1.1592647   0.84396718   -0.1903138    1.3495785   421400 
  418000   0.90108128  -0.18977673  -0.18977673     1.161842   0.84716893  -0.18977673    1.3516187   421400 
  419000   0.90270406   -0.1909385   -0.1909385    1.1631144   0.84396088   -0.1909385    1.3540529   421400 
  420000   0.90230762  -0.18952428  -0.18952428    1.1639339   0.84859382  -0.18952428    1.3534582   421400 
  421000   0.90068734  -0.18957332  -0.18957332    1.1614545   0.84588715  -0.18957332    1.3510278   421400 
  422000   0.90127899  -0.19020435  -0.19020435    1.1617109   0.84511109  -0.19020435    1.3519153   421400 
  423000   0.90102809  -0.19097706  -0.19097706    1.1605619   0.84396497  -0.19097706    1.3515389   421400 
  424000   0.90032311  -0.18926943  -0.18926943     1.161212   0.84763267  -0.18926943    1.3504815   421400 
  425000   0.90033078  -0.18968901  -0.18968901    1.1608039   0.84559785  -0.18968901     1.350493   421400 
  426000   0.89788706   -0.1910206   -0.1910206    1.1558068   0.84141952   -0.1910206    1.3468274   421400 
  427000   0.89970514  -0.19070993  -0.19070993    1.1588446   0.84306882  -0.19070993    1.3495545   421400 
  428000   0.90074633  -0.18989305  -0.18989305    1.1612232   0.84575809  -0.18989305    1.3511163   421400 
  429000   0.90169877  -0.18969826  -0.18969826    1.1628467   0.84728511  -0.18969826    1.3525449   421400 
  430000   0.89951302  -0.18946929  -0.18946929     1.159797   0.84686916  -0.18946929    1.3492663   421400 
  431000   0.89702125  -0.18937283  -0.18937283    1.1561558   0.84509888  -0.18937283    1.3455287   421400 
  432000   0.90055524  -0.19199155  -0.19199155    1.1588381   0.84106592  -0.19199155    1.3508297   421400 
  433000   0.90108123  -0.19030151  -0.19030151    1.1613171   0.84348169  -0.19030151    1.3516186   421400 
  434000   0.90155611  -0.19037482  -0.19037482    1.1619561   0.84327534  -0.19037482     1.352331   421400 
  435000   0.90082529  -0.19020702  -0.19020702    1.1610277   0.84480109  -0.19020702    1.3512347   421400 
  436000   0.90164459  -0.18906803  -0.18906803    1.1633956   0.84847069  -0.18906803    1.3524637   421400 
  437000   0.90075797  -0.18931974  -0.18931974     1.161814   0.84850311  -0.18931974    1.3511337   421400 
  438000   0.90138125  -0.19023347  -0.19023347    1.1618352   0.84697806  -0.19023347    1.3520687   421400 
  439000   0.90195198  -0.19076306  -0.19076306    1.1621617   0.84149456  -0.19076306    1.3529248   421400 
  440000   0.90124449  -0.19023671  -0.19023671    1.1616268   0.84480349  -0.19023671    1.3518635   421400 
  441000   0.89988865  -0.19056913  -0.19056913    1.1592606   0.84379624  -0.19056913    1.3498298   421400 
  442000   0.89990462  -0.19068494  -0.19068494    1.1591688   0.84427911  -0.19068494    1.3498537   421400 
  443000   0.90010177  -0.18961049  -0.18961049     1.160539   0.84776764  -0.18961049    1.3501495   421400 
  444000    0.9005401  -0.19024895  -0.19024895     1.160558   0.84696923  -0.19024895    1.3508069   421400 
  445000   0.90228665  -0.19015303  -0.19015303    1.1632737   0.84647747  -0.19015303    1.3534268   421400 
  446000   0.90051583  -0.18960791  -0.18960791    1.1611626   0.84680915  -0.18960791    1.3507705   421400 
  447000    0.9003928  -0.19085911  -0.19085911    1.1597269   0.84211832  -0.19085911     1.350586   421400 
  448000   0.89993883  -0.19024411  -0.19024411    1.1596609   0.84435794  -0.19024411     1.349905   421400 
  449000    0.9017785  -0.19083964  -0.19083964    1.1618249   0.84151538  -0.19083964    1.3526645   421400 
  450000   0.90037895  -0.19048812  -0.19048812    1.1600771   0.84292386  -0.19048812    1.3505652   421400 
  451000   0.90028329  -0.19080849  -0.19080849    1.1596132   0.84189551  -0.19080849    1.3504217   421400 
  452000   0.90039067   -0.1896845   -0.1896845    1.1608983   0.84553827   -0.1896845    1.3505828   421400 
  453000   0.89867061  -0.19118045  -0.19118045    1.1568223   0.84252287  -0.19118045    1.3480027   421400 
  454000   0.89958863  -0.19103748  -0.19103748    1.1583423   0.84315193  -0.19103748    1.3493797   421400 
  455000    0.9000841  -0.19001788  -0.19001788    1.1601051    0.8441586  -0.19001788    1.3501229   421400 
  456000   0.89998619  -0.18925643  -0.18925643    1.1607196   0.84818888  -0.18925643    1.3499761   421400 
  457000   0.90179366  -0.18963126  -0.18963126     1.163056   0.84821826  -0.18963126    1.3526873   421400 
  458000   0.90086617  -0.18943164  -0.18943164    1.1618644   0.84705078  -0.18943164     1.351296   421400 
  459000   0.89977403  -0.18862849  -0.18862849    1.1610294   0.85060159  -0.18862849    1.3496578   421400 
  460000   0.90039461  -0.18925628  -0.18925628    1.1613324   0.84699687  -0.18925628    1.3505887   421400 
  461000   0.90039914  -0.19038959  -0.19038959    1.1602059   0.84378221  -0.19038959    1.3505955   421400 
  462000   0.89801854  -0.18954476  -0.18954476    1.1574799   0.84628644  -0.18954476    1.3470246   421400 
  463000   0.90039331  -0.18874723  -0.18874723    1.1618395   0.84882224  -0.18874723    1.3505868   421400 
  464000   0.90026067  -0.18968658  -0.18968658    1.1607012     0.846238  -0.18968658    1.3503878   421400 
  465000   0.90091363  -0.18938501  -0.18938501    1.1619822   0.84675421  -0.18938501    1.3513672   421400 
  466000   0.90108137   -0.1899709   -0.1899709    1.1616479    0.8464048   -0.1899709    1.3516188   421400 
  467000   0.90029492  -0.19219906  -0.19219906    1.1582401    0.8387192  -0.19219906    1.3504392   421400 
  468000   0.89946804  -0.19032415  -0.19032415    1.1588747   0.84368037  -0.19032415    1.3491989   421400 
  469000   0.90094291  -0.18996781  -0.18996781    1.1614433   0.84665809  -0.18996781    1.3514112   421400 
  470000   0.90106788  -0.19200641  -0.19200641    1.1595922   0.84070998  -0.19200641    1.3515986   421400 
  471000   0.90191878  -0.19106084  -0.19106084    1.1618141   0.84354976  -0.19106084     1.352875   421400 
  472000   0.90081061  -0.18951758  -0.18951758    1.1616951   0.84723208  -0.18951758    1.3512127   421400 
  473000   0.90078526  -0.18940102  -0.18940102    1.1617737   0.84797714  -0.18940102    1.3511747   421400 
  474000   0.90101834  -0.18918871  -0.18918871    1.1623356    0.8485014  -0.18918871    1.3515243   421400 
  475000   0.90053902  -0.18982529  -0.18982529      1.16098   0.84851301  -0.18982529    1.3508053   421400 
  476000   0.90120789  -0.19012351  -0.19012351    1.1616851    0.8474587  -0.19012351    1.3518086   421400 
  477000   0.89872842  -0.18997678  -0.18997678    1.1581127   0.84725564  -0.18997678    1.3480894   421400 
  478000   0.89975063  -0.19002463  -0.19002463    1.1595981   0.84483937  -0.19002463    1.3496227   421400 
  479000   0.89986907  -0.19051847  -0.19051847    1.1592819   0.84509457  -0.19051847    1.3498004   421400 
  480000   0.89814131   -0.1907394   -0.1907394    1.1564694    0.8435531   -0.1907394    1.3472088   421400 
  481000   0.89973264  -0.19130123  -0.19130123    1.1582945   0.84250259  -0.19130123    1.3495958   421400 
  482000   0.89925956  -0.19096413  -0.19096413     1.157922   0.84261822  -0.19096413    1.3488861   421400 
  483000    0.9001416  -0.19076477  -0.19076477    1.1594444   0.84364007  -0.19076477    1.3502092   421400 
  484000   0.90184404  -0.19077169  -0.19077169    1.1619912   0.84366342  -0.19077169    1.3527628   421400 
  485000   0.90161377  -0.18976436  -0.18976436    1.1626531   0.84635692  -0.18976436    1.3524174   421400 
  486000   0.90028666  -0.19101505  -0.19101505    1.1594117   0.84154618  -0.19101505    1.3504268   421400 
  487000   0.89922605  -0.19031596  -0.19031596    1.1585199   0.84477002  -0.19031596    1.3488359   421400 
  488000   0.90062081  -0.19027185  -0.19027185    1.1606562   0.84378555  -0.19027185     1.350928   421400 
  489000   0.89916667  -0.18818531  -0.18818531    1.1605615   0.85037335  -0.18818531    1.3487468   421400 
  490000   0.89936573  -0.18980094  -0.18980094    1.1592445   0.84457494  -0.18980094    1.3490454   421400 
  491000   0.89880095  -0.18964748  -0.18964748    1.1585507   0.84668822  -0.18964748    1.3481982   421400 
  492000   0.90042347  -0.19086311  -0.19086311    1.1597689     0.843344  -0.19086311     1.350632   421400 
  493000   0.89978572  -0.18997191  -0.18997191    1.1597035   0.84325542  -0.18997191    1.3496754   421400 
  494000   0.89944139  -0.19004822  -0.19004822    1.1591107   0.84628275  -0.19004822    1.3491589   421400 
  495000   0.89829999  -0.19022693  -0.19022693    1.1572199   0.84352565  -0.19022693    1.3474468   421400 
  496000   0.90062247  -0.19090045  -0.19090045      1.16003   0.84385666  -0.19090045    1.3509305   421400 
  497000   0.90034644  -0.19056709  -0.19056709    1.1599494   0.84458022  -0.19056709    1.3505165   421400 
  498000   0.89931417  -0.18967626  -0.18967626    1.1592918   0.84625363  -0.18967626    1.3489681   421400 
  499000   0.90021392  -0.18848378  -0.18848378    1.1618339   0.84856163  -0.18848378    1.3503177   421400 
  500000   0.90158932  -0.18951093  -0.18951093    1.1628698   0.84695065  -0.18951093    1.3523808   421400 
  501000   0.90183458  -0.19040162  -0.19040162     1.162347   0.84438482  -0.19040162    1.3527487   421400 
  502000     0.899694  -0.19007712  -0.19007712    1.1594607     0.845276  -0.19007712    1.3495378   421400 
  503000   0.89908329  -0.19029728  -0.19029728    1.1583245   0.84134579  -0.19029728    1.3486217   421400 
  504000   0.89959516  -0.19037315  -0.19037315    1.1590164   0.84324391  -0.19037315    1.3493895   421400 
  505000   0.90018336  -0.18992633  -0.18992633    1.1603455   0.84404615  -0.18992633    1.3502718   421400 
  506000   0.90016317  -0.18961888  -0.18961888    1.1606227    0.8451947  -0.18961888    1.3502416   421400 
  507000    0.8999266  -0.19025348  -0.19025348    1.1596332   0.84491525  -0.19025348    1.3498867   421400 
  508000   0.90065072  -0.18935913  -0.18935913    1.1616138   0.84884962  -0.18935913    1.3509729   421400 
  509000   0.90145487  -0.19039118  -0.19039118    1.1617879   0.84374494  -0.19039118    1.3521791   421400 
  510000   0.90055828  -0.18992127  -0.18992127    1.1609129   0.84523852  -0.18992127    1.3508342   421400 
  511000   0.89875579  -0.19027914  -0.19027914    1.1578513   0.84399153  -0.19027914    1.3481305   421400 
  512000   0.89748595  -0.19046245  -0.19046245    1.1557633   0.84456512  -0.19046245    1.3462257   421400 
  513000   0.90035911   -0.1895839   -0.1895839    1.1609516   0.84670158   -0.1895839    1.3505355   421400 
  514000   0.90090343  -0.18901888  -0.18901888    1.1623331   0.84788706  -0.18901888    1.3513519   421400 
  515000   0.90192725   -0.1903091   -0.1903091    1.1625786    0.8450536   -0.1903091    1.3528877   421400 
  516000   0.89900616  -0.18968438  -0.18968438    1.1588217   0.84580467  -0.18968438     1.348506   421400 
  517000   0.89900006  -0.19129214  -0.19129214    1.1572047   0.84153127  -0.19129214    1.3484969   421400 
  518000   0.90071954  -0.19093212  -0.19093212     1.160144   0.84406343  -0.19093212    1.3510761   421400 
  519000    0.8996037  -0.18986135  -0.18986135     1.159541   0.84739666  -0.18986135    1.3494024   421400 
  520000   0.90012427  -0.19070579  -0.19070579    1.1594774   0.84364713  -0.19070579    1.3501832   421400 
  521000   0.89865879  -0.19093805  -0.19093805    1.1570469   0.84213491  -0.19093805     1.347985   421400 
  522000   0.89775668   -0.1898447   -0.1898447    1.1567871   0.84543627   -0.1898447    1.3466318   421400 
  523000   0.89748143  -0.19138647  -0.19138647    1.1548325   0.83984523  -0.19138647    1.3462189   421400 
  524000   0.90064273  -0.18993718  -0.18993718    1.1610237     0.845236  -0.18993718    1.3509609   421400 
  525000   0.89945629  -0.18983295  -0.18983295    1.1593483   0.84609385  -0.18983295    1.3491812   421400 
  526000    0.9000418  -0.19053316  -0.19053316    1.1595263    0.8442619  -0.19053316    1.3500595   421400 
  527000   0.89962448  -0.18983149  -0.18983149     1.159602   0.84533747  -0.18983149    1.3494335   421400 
  528000   0.90085952  -0.18995317  -0.18995317    1.1613329   0.84556114  -0.18995317    1.3512861   421400 
  529000   0.90099066  -0.19010717  -0.19010717    1.1613756   0.84580872  -0.19010717    1.3514828   421400 
  530000   0.89978118  -0.18788587  -0.18788587    1.1617827   0.85182555  -0.18788587    1.3496686   421400 
  531000   0.90048274  -0.18994146  -0.18994146    1.1607794   0.84630891  -0.18994146    1.3507209   421400 
  532000   0.90110483  -0.19089235  -0.19089235    1.1607617   0.84324532  -0.19089235     1.351654   421400 
  533000   0.89963757  -0.18983446  -0.18983446    1.1596187   0.84605642  -0.18983446    1.3494532   421400 
  534000   0.90019665  -0.18962345  -0.18962345    1.1606683    0.8455775  -0.18962345    1.3502918   421400 
  535000   0.90077938  -0.18909757  -0.18909757    1.1620683   0.84646058  -0.18909757    1.3511659   421400 
  536000   0.89967812  -0.19102852  -0.19102852    1.1584855   0.84178811  -0.19102852     1.349514   421400 
  537000   0.89876074  -0.19062117  -0.19062117    1.1575168   0.84156119  -0.19062117    1.3481379   421400 
  538000   0.89722699  -0.19002304  -0.19002304    1.1558143    0.8438225  -0.19002304    1.3458373   421400 
  539000   0.89912835  -0.18875747  -0.18875747    1.1599319   0.84790152  -0.18875747    1.3486893   421400 
  540000   0.89964639  -0.19048136  -0.19048136     1.158985   0.84439067  -0.19048136    1.3494664   421400 
  541000    0.9000433  -0.19078869  -0.19078869    1.1592731   0.84210592  -0.19078869    1.3500617   421400 
  542000    0.9005848  -0.18950343  -0.18950343    1.1613706    0.8470603  -0.18950343     1.350874   421400 
  543000   0.89996029  -0.19033609  -0.19033609    1.1596011   0.84379628  -0.19033609    1.3499372   421400 
  544000   0.90022239   -0.1916084   -0.1916084     1.158722    0.8412722   -0.1916084    1.3503304   421400 
  545000    0.8998634  -0.19017572  -0.19017572    1.1596162   0.84629121  -0.19017572    1.3497919   421400 
  546000   0.90193731  -0.19045105  -0.19045105    1.1624517    0.8454354  -0.19045105    1.3529028   421400 
  547000   0.90027569  -0.18985783  -0.18985783    1.1605525   0.84778086  -0.18985783    1.3504103   421400 
  548000    0.8999584  -0.18979976  -0.18979976    1.1601346   0.84594185  -0.18979976    1.3499344   421400 
  549000   0.90072875  -0.19033779  -0.19033779    1.1607521   0.84460425  -0.19033779    1.3510899   421400 
  550000   0.90114856  -0.18988225  -0.18988225    1.1618374   0.84639483  -0.18988225    1.3517196   421400 
  551000   0.90035219  -0.18970773  -0.18970773    1.1608174   0.84695643  -0.18970773    1.3505251   421400 
  552000   0.89952303  -0.19104661  -0.19104661    1.1582347   0.84220542  -0.19104661    1.3492813   421400 
  553000   0.90027893  -0.19020734  -0.19020734    1.1602079   0.84644388  -0.19020734    1.3504152   421400 
  554000   0.89883246  -0.19094515  -0.19094515    1.1573003   0.84264151  -0.19094515    1.3482455   421400 
  555000   0.89925338  -0.19132909  -0.19132909    1.1575478   0.84076864  -0.19132909    1.3488769   421400 
  556000    0.8998227  -0.18967537  -0.18967537    1.1600555   0.84644611  -0.18967537    1.3497308   421400 
  557000   0.90008455  -0.19035464  -0.19035464     1.159769   0.84500622  -0.19035464    1.3501236   421400 
  558000   0.90142036  -0.19017755  -0.19017755    1.1619498   0.84550118  -0.19017755    1.3521273   421400 
  559000    0.9010213  -0.19100312  -0.19100312    1.1605256   0.84173032  -0.19100312    1.3515287   421400 
  560000   0.90206959  -0.19131012  -0.19131012    1.1617911   0.84191078  -0.19131012    1.3531012   421400 
  561000   0.89974637  -0.19079753  -0.19079753    1.1588188   0.84215004  -0.19079753    1.3496163   421400 
  562000   0.89868071  -0.18995398  -0.18995398    1.1580639   0.84432906  -0.18995398    1.3480179   421400 
  563000   0.90017219  -0.19052941  -0.19052941    1.1597257    0.8440786  -0.19052941    1.3502551   421400 
  564000   0.90129742  -0.19020824  -0.19020824    1.1617347   0.84525797  -0.19020824    1.3519429   421400 
  565000   0.89994899  -0.18990337  -0.18990337    1.1600169   0.84477716  -0.18990337    1.3499203   421400 
  566000   0.89970483   -0.1897109   -0.1897109    1.1598431    0.8457664   -0.1897109     1.349554   421400 
  567000   0.89950232  -0.19016716  -0.19016716    1.1590831   0.84381905  -0.19016716    1.3492503   421400 
  568000   0.90166151  -0.18975846  -0.18975846    1.1627306   0.84699433  -0.18975846    1.3524891   421400 
  569000   0.90212247  -0.19062227  -0.19062227    1.1625582   0.84491645  -0.19062227    1.3531805   421400 
  570000   0.90056858  -0.18936267  -0.18936267     1.161487   0.84759614  -0.18936267    1.3508497   421400 
  571000   0.90158772  -0.18941881  -0.18941881    1.1629596   0.84852977  -0.18941881    1.3523784   421400 
  572000   0.90075885  -0.18987054  -0.18987054    1.1612645   0.84617735  -0.18987054    1.3511351   421400 
  573000   0.90084898  -0.18953136  -0.18953136    1.1617389   0.84652875  -0.18953136    1.3512703   421400 
  574000   0.90081264  -0.18923721  -0.18923721    1.1619785      0.84874  -0.18923721    1.3512158   421400 
  575000   0.90245952  -0.19134143  -0.19134143    1.1623446   0.84326395  -0.19134143    1.3536861   421400 
  576000   0.90243839  -0.19060258  -0.19060258    1.1630518   0.84469709  -0.19060258    1.3536544   421400 
  577000   0.89996346  -0.18963767  -0.18963767    1.1603043   0.84547045  -0.18963767     1.349942   421400 
  578000   0.90093009  -0.18990541  -0.18990541    1.1614865   0.84502381  -0.18990541    1.3513919   421400 
  579000   0.90039848  -0.19004769  -0.19004769    1.1605468   0.84343475  -0.19004769    1.3505945   421400 
  580000   0.89947256  -0.18950908  -0.18950908    1.1596966   0.84583632  -0.18950908    1.3492056   421400 
  581000   0.90009433  -0.18989678  -0.18989678    1.1602415   0.84446532  -0.18989678    1.3501383   421400 
  582000    0.9002956  -0.18981843  -0.18981843    1.1606218   0.84645013  -0.18981843    1.3504402   421400 
  583000   0.90132263  -0.18991606  -0.18991606    1.1620647    0.8448846  -0.18991606    1.3519807   421400 
  584000   0.90048116  -0.18999393  -0.18999393    1.1607246   0.84557529  -0.18999393    1.3507185   421400 
  585000    0.8991418  -0.19000529  -0.19000529    1.1587042   0.84424312  -0.19000529    1.3487095   421400 
  586000   0.89909062  -0.19049195  -0.19049195    1.1581408   0.84331858  -0.19049195    1.3486327   421400 
  587000   0.90026867   -0.1907902   -0.1907902    1.1596096   0.84086198   -0.1907902    1.3503998   421400 
  588000   0.90006966  -0.19011454  -0.19011454    1.1599867   0.84517832  -0.19011454    1.3501013   421400 
  589000    0.8988362  -0.18914503  -0.18914503    1.1591061    0.8474277  -0.18914503    1.3482511   421400 
  590000   0.89945987  -0.19043577  -0.19043577    1.1587508   0.84492978  -0.19043577    1.3491866   421400 
  591000   0.90088291  -0.18968889  -0.18968889    1.1616323   0.84612761  -0.18968889    1.3513212   421400 
  592000   0.89949144  -0.18950958  -0.18950958    1.1597244    0.8463463  -0.18950958     1.349234   421400 
  593000   0.89994404  -0.19059598  -0.19059598    1.1593169   0.84284212  -0.19059598    1.3499128   421400 
  594000   0.89899189  -0.18860684  -0.18860684    1.1598778    0.8501525  -0.18860684    1.3484846   421400 
  595000   0.89988713  -0.18923169  -0.18923169    1.1605958   0.84895406  -0.18923169    1.3498275   421400 
  596000   0.89998431  -0.19033645  -0.19033645    1.1596368   0.84421004  -0.19033645    1.3499733   421400 
  597000   0.89981921  -0.19067178  -0.19067178    1.1590538   0.84356793  -0.19067178    1.3497256   421400 
  598000   0.90029849  -0.19152221  -0.19152221    1.1589223   0.83990112  -0.19152221    1.3504445   421400 
  599000   0.89927026  -0.19097732  -0.19097732    1.1579249   0.84198818  -0.19097732    1.3489022   421400 
  600000   0.90075433  -0.19029281  -0.19029281    1.1608355   0.84454613  -0.19029281    1.3511283   421400 
  601000   0.90122203  -0.19064652  -0.19064652    1.1611833   0.84481831  -0.19064652    1.3518298   421400 
  602000   0.90035366  -0.19005035  -0.19005035    1.1604769   0.84612503  -0.19005035    1.3505273   421400 
  603000   0.90014885  -0.19021974  -0.19021974    1.1600003   0.84409174  -0.19021974    1.3502201   421400 
  604000   0.90271592  -0.19118678  -0.19118678    1.1628839   0.84371099  -0.19118678    1.3540707   421400 
  605000   0.90089593  -0.18954046  -0.18954046    1.1618002   0.84570278  -0.18954046    1.3513407   421400 
  606000   0.89883152   -0.1898688   -0.1898688    1.1583753   0.84429676   -0.1898688    1.3482441   421400 
  607000   0.90143146  -0.19022138  -0.19022138    1.1619226   0.84633813  -0.19022138     1.352144   421400 
  608000   0.90325542   -0.1910096   -0.1910096    1.1638703   0.84316759   -0.1910096    1.3548799   421400 
  609000   0.90165173   -0.1894928   -0.1894928    1.1629816   0.84459713   -0.1894928    1.3524744   421400 
  610000   0.90086079   -0.1914633   -0.1914633    1.1598247   0.84213484   -0.1914633     1.351288   421400 
  611000   0.90130989  -0.19126814  -0.19126814    1.1606935   0.84258683  -0.19126814    1.3519616   421400 
  612000   0.90050016   -0.1895589   -0.1895589    1.1611881   0.84695901   -0.1895589     1.350747   421400 
  613000   0.90220697  -0.19016846  -0.19016846    1.1631388   0.84541272  -0.19016846    1.3533072   421400 
  614000   0.90269774  -0.18932187  -0.18932187    1.1647215   0.84944118  -0.18932187    1.3540434   421400 
  615000   0.90208913  -0.19060452  -0.19060452     1.162526   0.84586737  -0.19060452    1.3531305   421400 
  616000   0.89996215  -0.19002313  -0.19002313    1.1599169   0.84512987  -0.19002313      1.34994   421400 
  617000   0.90030878  -0.19071017  -0.19071017    1.1597498   0.84502204  -0.19071017      1.35046   421400 
  618000   0.89967748  -0.19135264  -0.19135264    1.1581604   0.83973262  -0.19135264     1.349513   421400 
  619000   0.89661934  -0.18986435  -0.18986435    1.1550615   0.84397089  -0.18986435    1.3449258   421400 
  620000   0.89983578  -0.19073379  -0.19073379    1.1590167   0.84245662  -0.19073379    1.3497505   421400 
  621000   0.90017444  -0.18991673  -0.18991673    1.1603417    0.8465904  -0.18991673    1.3502585   421400 
  622000   0.89778664   -0.1915322   -0.1915322    1.1551446   0.84143574   -0.1915322    1.3466768   421400 
  623000   0.89801086  -0.19076091  -0.19076091    1.1562522   0.84316018  -0.19076091    1.3470131   421400 
  624000   0.89793405  -0.18989388  -0.18989388     1.157004     0.845236  -0.18989388    1.3468979   421400 
  625000   0.90163037  -0.18953857  -0.18953857    1.1629038   0.84569053  -0.18953857    1.3524423   421400 
  626000   0.90160465  -0.18921313  -0.18921313    1.1631906   0.84715023  -0.18921313    1.3524038   421400 
  627000   0.90167809  -0.18939921  -0.18939921    1.1631147   0.84713495  -0.18939921    1.3525139   421400 
  628000   0.90046466  -0.19055678  -0.19055678     1.160137   0.84364628  -0.19055678    1.3506938   421400 
  629000   0.90022632  -0.19097666  -0.19097666    1.1593596   0.84424832  -0.19097666    1.3503363   421400 
  630000   0.89986195  -0.19018523  -0.19018523    1.1596045   0.84502141  -0.19018523    1.3497897   421400 
  631000   0.90016513  -0.19153868  -0.19153868    1.1587058   0.84076318  -0.19153868    1.3502445   421400 
  632000   0.89815239  -0.19020306  -0.19020306    1.1570223   0.84373806  -0.19020306    1.3472254   421400 
  633000   0.90000105  -0.19092111  -0.19092111    1.1590773   0.84263058  -0.19092111    1.3499984   421400 
  634000   0.90062997  -0.19001875  -0.19001875     1.160923   0.84562156  -0.19001875    1.3509417   421400 
  635000   0.89994028  -0.18976288  -0.18976288    1.1601443   0.84665845  -0.18976288    1.3499072   421400 
  636000   0.89984372   -0.1907353   -0.1907353    1.1590271   0.84281599   -0.1907353    1.3497624   421400 
  637000   0.90089211  -0.18995242  -0.18995242    1.1613825   0.84586205  -0.18995242     1.351335   421400 
  638000   0.90031737  -0.19061765  -0.19061765    1.1598552   0.84334208  -0.19061765    1.3504728   421400 
  639000    0.8997647  -0.19011417  -0.19011417    1.1595297   0.84624441  -0.19011417    1.3496438   421400 
  640000   0.90069955  -0.19037233  -0.19037233    1.1606738   0.84409568  -0.19037233    1.3510461   421400 
  641000   0.90102857  -0.19101241  -0.19101241    1.1605272     0.842503  -0.19101241    1.3515396   421400 
  642000   0.89964326  -0.18954845  -0.18954845    1.1599132   0.84535716  -0.18954845    1.3494617   421400 
  643000   0.90056682  -0.19037894  -0.19037894    1.1604681   0.84352323  -0.19037894     1.350847   421400 
  644000   0.90042268  -0.18915281  -0.18915281     1.161478   0.84648611  -0.18915281    1.3506308   421400 
  645000   0.89766986  -0.18991026  -0.18991026    1.1565913   0.84523661  -0.18991026    1.3465016   421400 
  646000   0.90000524  -0.19010716  -0.19010716    1.1598975   0.84566533  -0.19010716    1.3500047   421400 
  647000   0.90002848  -0.19067101  -0.19067101    1.1593685   0.84328946  -0.19067101    1.3500395   421400 
  648000   0.89916679  -0.18933861  -0.18933861    1.1594084    0.8472789  -0.18933861     1.348747   421400 
  649000    0.8999237  -0.19058888  -0.19058888    1.1592935   0.84459165  -0.19058888    1.3498823   421400 
  650000    0.8999506  -0.19108384  -0.19108384    1.1588389   0.84366377  -0.19108384    1.3499227   421400 
  651000   0.90006671  -0.19016264  -0.19016264    1.1599342   0.84538915  -0.19016264    1.3500969   421400 
  652000   0.90043949  -0.19049225  -0.19049225    1.1601638   0.84406806  -0.19049225     1.350656   421400 
  653000   0.90051071  -0.19116277  -0.19116277    1.1596001   0.84204733  -0.19116277    1.3507629   421400 
  654000   0.90163585  -0.19007924  -0.19007924    1.1623713   0.84475494  -0.19007924    1.3524506   421400 
  655000    0.9004802  -0.19034322  -0.19034322    1.1603739   0.84477608  -0.19034322    1.3507171   421400 
  656000   0.90071363  -0.19025224  -0.19025224     1.160815   0.84572761  -0.19025224    1.3510672   421400 
  657000   0.89994408  -0.19056565  -0.19056565    1.1593473   0.84386203  -0.19056565    1.3499129   421400 
  658000    0.9001763  -0.19118648  -0.19118648    1.1590748   0.84310452  -0.19118648    1.3502613   421400 
  659000   0.89939844  -0.19035499  -0.19035499    1.1587395   0.84355847  -0.19035499    1.3490945   421400 
  660000   0.90039407  -0.18931674  -0.18931674    1.1612712   0.84699317  -0.18931674    1.3505879   421400 
  661000    0.9011678   -0.1892265   -0.1892265     1.162522   0.84863196   -0.1892265    1.3517485   421400 
  662000   0.90167725  -0.19073501  -0.19073501    1.1617777   0.84563028  -0.19073501    1.3525127   421400 
  663000   0.89853906  -0.19037137  -0.19037137     1.157434   0.84325004  -0.19037137    1.3478054   421400 
  664000   0.89852626  -0.18927218  -0.18927218     1.158514    0.8470117  -0.18927218    1.3477862   421400 
  665000   0.90078877  -0.19082275  -0.19082275    1.1603572   0.84470683  -0.19082275      1.35118   421400 
  666000   0.89853869  -0.19103654  -0.19103654    1.1567683   0.84182389  -0.19103654    1.3478048   421400 
  667000     0.899119  -0.19083056  -0.19083056    1.1578447   0.84330595  -0.19083056    1.3486753   421400 
  668000   0.89912226  -0.18892524  -0.18892524    1.1597549   0.84979469  -0.18892524    1.3486802   421400 
  669000   0.89849806  -0.18930071  -0.18930071    1.1584432   0.84659014  -0.18930071    1.3477439   421400 
  670000   0.90084365  -0.18994064  -0.18994064    1.1613216   0.84435506  -0.18994064    1.3512623   421400 
  671000   0.89972742  -0.18943434  -0.18943434    1.1601536   0.84798645  -0.18943434    1.3495879   421400 
  672000   0.89992412  -0.19002724  -0.19002724    1.1598557   0.84493329  -0.19002724     1.349883   421400 
  673000   0.90044435  -0.19017483  -0.19017483    1.1604885    0.8442703  -0.19017483    1.3506633   421400 
  674000   0.89967793  -0.19018352  -0.19018352    1.1593302   0.84356604  -0.19018352    1.3495137   421400 
  675000   0.90119377   -0.1894876   -0.1894876    1.1622998   0.84806071   -0.1894876    1.3517874   421400 
  676000   0.90121509  -0.19070362  -0.19070362    1.1611158   0.84324586  -0.19070362    1.3518194   421400 
  677000   0.90262716  -0.18992775  -0.18992775    1.1640098   0.84602991  -0.18992775    1.3539375   421400 
  678000   0.90187489  -0.19027833  -0.19027833    1.1625308    0.8440099  -0.19027833    1.3528091   421400 
  679000   0.89913072  -0.19025571  -0.19025571    1.1584372   0.84424298  -0.19025571    1.3486929   421400 
  680000   0.90057814  -0.18963982  -0.18963982    1.1612242   0.84660439  -0.18963982     1.350864   421400 
  681000   0.90093951    -0.190295    -0.190295    1.1611111   0.84502133    -0.190295    1.3514061   421400 
  682000   0.90136227  -0.18986234  -0.18986234    1.1621779   0.84625891  -0.18986234    1.3520402   421400 
  683000   0.90113157  -0.18989942  -0.18989942    1.1617947   0.84735959  -0.18989942    1.3516942   421400 
  684000   0.89979953  -0.18990667  -0.18990667    1.1597894   0.84665229  -0.18990667    1.3496961   421400 
  685000   0.89977491  -0.19000468  -0.19000468    1.1596545   0.84582214  -0.19000468    1.3496592   421400 
  686000   0.90167643  -0.19156749  -0.19156749     1.160944   0.84126697  -0.19156749    1.3525114   421400 
  687000   0.90165818  -0.18870041  -0.18870041    1.1637836    0.8490531  -0.18870041    1.3524841   421400 
  688000   0.89989788   -0.1894683   -0.1894683    1.1603753   0.84684354   -0.1894683    1.3498436   421400 
  689000    0.9006185  -0.19138965  -0.19138965    1.1595349   0.84032649  -0.19138965    1.3509245   421400 
  690000   0.90003674  -0.18945817  -0.18945817    1.1605937   0.84765999  -0.18945817    1.3500519   421400 
  691000   0.90027772  -0.18935012  -0.18935012    1.1610633   0.84804364  -0.18935012    1.3504134   421400 
  692000   0.90002001  -0.19110329  -0.19110329    1.1589235   0.84339368  -0.19110329    1.3500268   421400 
  693000   0.90028376  -0.19090386  -0.19090386    1.1595186   0.84219421  -0.19090386    1.3504224   421400 
  694000   0.89895411  -0.19057968  -0.19057968    1.1578483   0.84350734  -0.19057968     1.348428   421400 
  695000   0.90138448  -0.19021433  -0.19021433    1.1618592   0.84635575  -0.19021433    1.3520735   421400 
  696000     0.900754  -0.18909035  -0.18909035    1.1620374   0.84796613  -0.18909035    1.3511278   421400 
  697000   0.90176266  -0.19195841  -0.19195841    1.1606824   0.84222008  -0.19195841    1.3526408   421400 
  698000   0.90107511  -0.19017143  -0.19017143     1.161438   0.84461381  -0.19017143    1.3516095   421400 
  699000   0.89994361  -0.19163983  -0.19163983    1.1582724   0.84134615  -0.19163983    1.3499122   421400 
  700000   0.89847673  -0.19031742  -0.19031742    1.1573945   0.84438142  -0.19031742    1.3477119   421400 
  701000   0.90022187  -0.19136732  -0.19136732    1.1589623   0.84231143  -0.19136732    1.3503296   421400 
  702000   0.89937068  -0.18999982  -0.18999982     1.159053   0.84574169  -0.18999982    1.3490528   421400 
  703000   0.90236343  -0.18971276  -0.18971276    1.1638292   0.84522625  -0.18971276    1.3535419   421400 
  704000    0.9005399   -0.1894549   -0.1894549    1.1613517   0.84640447   -0.1894549    1.3508066   421400 
  705000   0.89973138   -0.1905656   -0.1905656    1.1590283   0.84354535   -0.1905656    1.3495939   421400 
  706000    0.9004823  -0.18975608  -0.18975608    1.1609642   0.84581954  -0.18975608    1.3507202   421400 
  707000   0.89931301  -0.19062761  -0.19062761    1.1583387   0.84362937  -0.19062761    1.3489663   421400 
  708000   0.89920591  -0.19043776  -0.19043776    1.1583679   0.84328562  -0.19043776    1.3488057   421400 
  709000    0.8990979  -0.19078197  -0.19078197    1.1578617    0.8438947  -0.19078197    1.3486437   421400 
  710000   0.89875202  -0.19003584  -0.19003584     1.158089   0.84644632  -0.19003584    1.3481248   421400 
  711000   0.90053209  -0.19062442  -0.19062442    1.1601705   0.84216205  -0.19062442    1.3507949   421400 
[...]
 5119000   0.90153573  -0.18994177  -0.18994177    1.1623586   0.84707971  -0.18994177    1.3523004   421400 
 5120000   0.89891043  -0.18992141  -0.18992141     1.158441   0.84548278  -0.18992141    1.3483624   421400 
 5121000   0.90099172  -0.19014095  -0.19014095    1.1613434   0.84583412  -0.19014095    1.3514844   421400 
 5122000   0.90007181  -0.18978721  -0.18978721    1.1603173   0.84568683  -0.18978721    1.3501045   421400 
 5123000   0.89960565  -0.18986256  -0.18986256    1.1595427   0.84448617  -0.18986256    1.3494053   421400 
 5124000   0.90022962  -0.19065406  -0.19065406    1.1596872    0.8436182  -0.19065406    1.3503412   421400 
 5125000   0.89805954  -0.18980314  -0.18980314     1.157283   0.84333904  -0.18980314    1.3470861   421400 
 5126000   0.89887062  -0.19060432  -0.19060432    1.1576984   0.84340383  -0.19060432    1.3483027   421400 
 5127000    0.8994281  -0.18953517  -0.18953517    1.1596038   0.84607776  -0.18953517     1.349139   421400 
 5128000   0.89846886  -0.18926301  -0.18926301    1.1584371   0.84607939  -0.18926301    1.3477001   421400 
 5129000   0.89926195  -0.19121458  -0.19121458    1.1576751   0.84057204  -0.19121458    1.3488897   421400 
 5130000   0.89994891  -0.19034538  -0.19034538    1.1595748   0.84483644  -0.19034538    1.3499202   421400 
 5131000   0.90205361  -0.19056782  -0.19056782    1.1625094   0.84525278  -0.19056782    1.3530772   421400 
 5132000   0.90085972  -0.18985673  -0.18985673    1.1614296   0.84626013  -0.18985673    1.3512864   421400 
 5133000   0.90148929  -0.18943176  -0.18943176     1.162799   0.84736312  -0.18943176    1.3522307   421400 
 5134000   0.89781565  -0.18972796  -0.18972796    1.1569923   0.84486298  -0.18972796    1.3467203   421400 
 5135000    0.8993465  -0.19129594  -0.19129594    1.1577206   0.84022801  -0.19129594    1.3490165   421400 
 5136000   0.89873277  -0.18913903  -0.18913903    1.1589569   0.84650202  -0.18913903     1.348096   421400 
 5137000   0.89933785  -0.18987751  -0.18987751    1.1591261   0.84482513  -0.18987751    1.3490036   421400 
 5138000   0.89938431  -0.18921098  -0.18921098    1.1598623   0.84665715  -0.18921098    1.3490733   421400 
 5139000     0.897791  -0.18939934  -0.18939934     1.157284   0.84609296  -0.18939934    1.3466833   421400 
 5140000   0.89913434  -0.19137517  -0.19137517    1.1573231   0.84202337  -0.19137517    1.3486983   421400 
 5141000   0.89817324   -0.1901111   -0.1901111    1.1571456    0.8437931   -0.1901111    1.3472567   421400 
 5142000   0.89881486   -0.1906537   -0.1906537    1.1575654   0.84168716   -0.1906537    1.3482191   421400 
 5143000   0.90373257  -0.19061384  -0.19061384    1.1649818    0.8464593  -0.19061384    1.3555956   421400 
 5144000   0.90088611  -0.19047875  -0.19047875    1.1608472   0.84427297  -0.19047875     1.351326   421400 
 5145000   0.90098089    -0.189434    -0.189434    1.1620341    0.8475652    -0.189434    1.3514681   421400 
 5146000   0.90140844  -0.18998086  -0.18998086    1.1621286   0.84642531  -0.18998086    1.3521094   421400 
 5147000    0.9018807  -0.18901949  -0.18901949    1.1637983   0.84926984  -0.18901949    1.3528178   421400 
 5148000   0.90133356  -0.19015128  -0.19015128    1.1618459    0.8456088  -0.19015128    1.3519971   421400 
 5149000   0.90093891  -0.18914297  -0.18914297    1.1622622   0.84752701  -0.18914297    1.3514052   421400 
 5150000   0.90053235  -0.19180392  -0.19180392    1.1589914   0.84036482  -0.19180392    1.3507953   421400 
 5151000   0.90132914  -0.19085548  -0.19085548     1.161135   0.84416542  -0.19085548    1.3519905   421400 
 5152000   0.90003987  -0.18942194  -0.18942194    1.1606347   0.84826704  -0.18942194    1.3500566   421400 
 5153000   0.90056028   -0.1903289   -0.1903289    1.1605083   0.84505349   -0.1903289    1.3508372   421400 
 5154000   0.90006037  -0.18927352  -0.18927352    1.1608138   0.84703694  -0.18927352    1.3500874   421400 
 5155000   0.90088363  -0.19086645  -0.19086645    1.1604558   0.84380587  -0.19086645    1.3513222   421400 
 5156000   0.89979119  -0.18913151  -0.18913151    1.1605521   0.84715728  -0.18913151    1.3496836   421400 
 5157000   0.89968819  -0.19001615  -0.19001615    1.1595129   0.84550536  -0.19001615    1.3495291   421400 
 5158000   0.89984958   -0.1908018   -0.1908018    1.1589694   0.84183894   -0.1908018    1.3497712   421400 
 5159000   0.89852259  -0.18886934  -0.18886934    1.1589113   0.84804848  -0.18886934    1.3477807   421400 
 5160000   0.90074326  -0.19110099  -0.19110099    1.1600107   0.84480595  -0.19110099    1.3511117   421400 
 5161000   0.89964157  -0.18954914  -0.18954914      1.15991   0.84462252  -0.18954914    1.3494592   421400 
 5162000   0.90026316   -0.1912818   -0.1912818    1.1591097    0.8413527   -0.1912818    1.3503915   421400 
 5163000   0.89878385  -0.19084934  -0.19084934    1.1573232   0.84238654  -0.19084934    1.3481726   421400 
 5164000   0.89897183  -0.19059932  -0.19059932    1.1578552   0.84397215  -0.19059932    1.3484546   421400 
 5165000   0.90032053  -0.19015095  -0.19015095    1.1603266   0.84564592  -0.19015095    1.3504776   421400 
 5166000   0.89993241  -0.19037578  -0.19037578    1.1595196    0.8440401  -0.19037578    1.3498954   421400 
 5167000    0.8999844  -0.18991038  -0.18991038     1.160063   0.84408772  -0.18991038    1.3499734   421400 
 5168000   0.90083799  -0.18961712  -0.18961712    1.1616367   0.84686425  -0.18961712    1.3512538   421400 
 5169000   0.90119566  -0.19070132  -0.19070132     1.161089   0.84239763  -0.19070132    1.3517903   421400 
 5170000   0.89960796  -0.18973105  -0.18973105    1.1596777    0.8447546  -0.18973105    1.3494087   421400 
 5171000   0.90089675  -0.19071176  -0.19071176    1.1606302   0.84375763  -0.19071176    1.3513419   421400 
 5172000   0.89999964  -0.18982589  -0.18982589    1.1601704   0.84487705  -0.18982589    1.3499963   421400 
 5173000   0.89989487  -0.18888337  -0.18888337    1.1609557   0.84840658  -0.18888337    1.3498391   421400 
 5174000   0.90140729  -0.19089706  -0.19089706    1.1612107   0.84341857  -0.19089706    1.3521077   421400 
 5175000   0.90055149  -0.18952816  -0.18952816    1.1612959   0.84615299  -0.18952816     1.350824   421400 
 5176000   0.90182696  -0.19087021  -0.19087021     1.161867   0.84481101  -0.19087021    1.3527372   421400 
 5177000   0.90055797    -0.188444    -0.188444    1.1623897   0.84991372    -0.188444    1.3508337   421400 
 5178000   0.90020507   -0.1895837   -0.1895837    1.1607207   0.84697709   -0.1895837    1.3503044   421400 
 5179000   0.89977615  -0.18947427  -0.18947427    1.1601867   0.84695206  -0.18947427     1.349661   421400 
 5180000   0.89685042  -0.19076177  -0.19076177    1.1545107   0.84341885  -0.19076177    1.3452724   421400 
 5181000   0.89959794  -0.19029939  -0.19029939    1.1590943   0.84393598  -0.19029939    1.3493937   421400 
 5182000   0.90151891  -0.18974999  -0.18974999    1.1625252    0.8473691  -0.18974999    1.3522752   421400 
 5183000   0.90008756  -0.19137925  -0.19137925    1.1587489   0.84177035  -0.19137925    1.3501281   421400 
 5184000   0.89938644  -0.19043758  -0.19043758    1.1586389   0.84522092  -0.19043758    1.3490765   421400 
 5185000   0.90045492  -0.18946618  -0.18946618     1.161213    0.8463814  -0.18946618    1.3506792   421400 
 5186000   0.89973397   -0.1899728   -0.1899728     1.159625   0.84552688   -0.1899728    1.3495978   421400 
 5187000   0.90020339  -0.18990664  -0.18990664    1.1603952   0.84458086  -0.18990664    1.3503019   421400 
 5188000   0.90043364  -0.19041597  -0.19041597    1.1602313   0.84530502  -0.19041597    1.3506473   421400 
 5189000   0.89875821  -0.18974895  -0.18974895    1.1583852   0.84567776  -0.18974895    1.3481341   421400 
 5190000   0.90004652  -0.18991621  -0.18991621    1.1601504    0.8457503  -0.18991621    1.3500666   421400 
 5191000   0.89924333  -0.18984443  -0.18984443    1.1590174   0.84546786  -0.18984443    1.3488618   421400 
 5192000   0.89882626  -0.19087743  -0.19087743    1.1573588   0.84177737  -0.19087743    1.3482362   421400 
 5193000   0.89943589  -0.18995773  -0.18995773    1.1591929   0.84389535  -0.18995773    1.3491506   421400 
 5194000   0.90005289   -0.1908907   -0.1908907    1.1591854   0.84318351   -0.1908907    1.3500761   421400 
 5195000   0.89874659  -0.19090086  -0.19090086    1.1572158   0.84329722  -0.19090086    1.3481167   421400 
 5196000   0.90000658  -0.19018342  -0.19018342    1.1598232   0.84622785  -0.19018342    1.3500067   421400 
 5197000   0.90000376  -0.19103244  -0.19103244      1.15897   0.84271172  -0.19103244    1.3500024   421400 
 5198000    0.9000028  -0.19053184  -0.19053184    1.1594691   0.84517619  -0.19053184     1.350001   421400 
 5199000   0.89959561  -0.19093997  -0.19093997    1.1584502   0.84204996  -0.19093997    1.3493902   421400 
 5200000   0.89836465    -0.189174    -0.189174    1.1583698    0.8462195    -0.189174    1.3475438   421400 
 5201000   0.89826016  -0.18920006  -0.18920006     1.158187   0.84792085  -0.18920006     1.347387   421400 
 5202000     0.900135   -0.1898549   -0.1898549    1.1603444   0.84686614   -0.1898549    1.3501993   421400 
 5203000   0.90080497  -0.19067214  -0.19067214    1.1605321   0.84307132  -0.19067214    1.3512042   421400 
 5204000   0.90168057  -0.19118501  -0.19118501    1.1613326   0.84134525  -0.19118501    1.3525176   421400 
 5205000   0.90189231  -0.18929918  -0.18929918    1.1635361   0.84690344  -0.18929918    1.3528352   421400 
 5206000   0.90130342  -0.19007398  -0.19007398    1.1618779    0.8461972  -0.19007398    1.3519519   421400 
 5207000   0.90049072  -0.19028552  -0.19028552    1.1604473   0.84299651  -0.19028552    1.3507329   421400 
 5208000   0.90139525  -0.19055663  -0.19055663     1.161533   0.84416895  -0.19055663    1.3520897   421400 
 5209000   0.89995669  -0.18951602  -0.18951602    1.1604158   0.84659237  -0.18951602    1.3499318   421400 
 5210000   0.89839904  -0.18985897  -0.18985897    1.1577364   0.84492704  -0.18985897    1.3475954   421400 
 5211000    0.8993736  -0.19099662  -0.19099662    1.1580606   0.84318594  -0.19099662    1.3490572   421400 
 5212000   0.89973911  -0.19106196  -0.19106196    1.1585435    0.8426869  -0.19106196    1.3496055   421400 
 5213000   0.90014372  -0.18975546  -0.18975546    1.1604569   0.84606574  -0.18975546    1.3502124   421400 
 5214000   0.90064493  -0.19053227  -0.19053227    1.1604319   0.84515477  -0.19053227    1.3509642   421400 
 5215000   0.89967119  -0.18842858  -0.18842858     1.161075   0.84950239  -0.18842858    1.3495036   421400 
 5216000   0.90209016  -0.18929724  -0.18929724    1.1638348   0.84835399  -0.18929724     1.353132   421400 
 5217000   0.90043467  -0.18997194  -0.18997194    1.1606769   0.84715087  -0.18997194    1.3506488   421400 
 5218000   0.90208243  -0.18899702  -0.18899702    1.1641234   0.84797971  -0.18899702    1.3531204   421400 
 5219000   0.89967422  -0.18943929  -0.18943929    1.1600688   0.84713659  -0.18943929    1.3495081   421400 
 5220000    0.9007221  -0.18943405  -0.18943405    1.1616459   0.84745323  -0.18943405    1.3510799   421400 
 5221000   0.90219874  -0.19038145  -0.19038145    1.1629134   0.84343147  -0.19038145    1.3532949   421400 
 5222000   0.90186399   -0.1897069   -0.1897069    1.1630859   0.84615455   -0.1897069    1.3527928   421400 
 5223000   0.89975375  -0.18954611  -0.18954611    1.1600813   0.84448747  -0.18954611    1.3496274   421400 
 5224000   0.90144075  -0.19054787  -0.19054787      1.16161    0.8440108  -0.19054787    1.3521579   421400 
 5225000   0.90087819  -0.19050311  -0.19050311     1.160811   0.84504638  -0.19050311    1.3513141   421400 
 5226000   0.89957209  -0.19044651  -0.19044651    1.1589084   0.84257431  -0.19044651    1.3493549   421400 
 5227000   0.90252547  -0.19003313  -0.19003313    1.1637519   0.84706195  -0.19003313     1.353785   421400 
 5228000   0.90212848  -0.18950755  -0.18950755     1.163682   0.84833813  -0.18950755    1.3531895   421400 
 5229000   0.89811051     -0.18976     -0.18976    1.1574026   0.84800505     -0.18976    1.3471626   421400 
 5230000   0.90009981  -0.19077261  -0.19077261    1.1593739   0.84276376  -0.19077261    1.3501465   421400 
 5231000   0.89915559  -0.18875089  -0.18875089    1.1599793   0.84749541  -0.18875089    1.3487302   421400 
 5232000   0.89887385   -0.1896359   -0.1896359    1.1586717   0.84526088   -0.1896359    1.3483076   421400 
 5233000    0.8997185  -0.18988226  -0.18988226    1.1596923   0.84398553  -0.18988226    1.3495745   421400 
 5234000   0.90082633  -0.19091891  -0.19091891    1.1603174   0.84338645  -0.19091891    1.3512363   421400 
 5235000   0.89800931   -0.1894756   -0.1894756    1.1575352   0.84616995   -0.1894756    1.3470108   421400 
 5236000   0.89957186  -0.18962337  -0.18962337    1.1597312   0.84473453  -0.18962337    1.3493546   421400 
 5237000   0.89961803  -0.18930233  -0.18930233    1.1601215   0.84777336  -0.18930233    1.3494238   421400 
 5238000   0.89822344  -0.18955509  -0.18955509    1.1577769   0.84609768  -0.18955509     1.347332   421400 
 5239000   0.90049365  -0.19049602  -0.19049602    1.1602412   0.84500002  -0.19049602    1.3507373   421400 
 5240000   0.90193624  -0.18895384  -0.18895384    1.1639473   0.84784829  -0.18895384    1.3529012   421400 
 5241000   0.90205647  -0.18958533  -0.18958533    1.1634962   0.84676213  -0.18958533    1.3530815   421400 
 5242000   0.90134955  -0.19011262  -0.19011262    1.1619085    0.8463614  -0.19011262    1.3520211   421400 
 5243000   0.90160964  -0.19003899  -0.19003899    1.1623723   0.84603069  -0.19003899    1.3524112   421400 
 5244000   0.90035888  -0.19126766  -0.19126766    1.1592675   0.84091435  -0.19126766    1.3505351   421400 
 5245000   0.90079505  -0.18997005  -0.18997005    1.1612193   0.84641947  -0.18997005    1.3511894   421400 
 5246000   0.89950958   -0.1898254   -0.1898254    1.1594358   0.84527931   -0.1898254    1.3492612   421400 
 5247000   0.90184968  -0.19006785  -0.19006785    1.1627035   0.84581436  -0.19006785    1.3527713   421400 
 5248000   0.90130468   -0.1902617   -0.1902617    1.1616921   0.84649596   -0.1902617    1.3519538   421400 
 5249000   0.90161189  -0.18960594  -0.18960594    1.1628087   0.84637073  -0.18960594    1.3524146   421400 
 5250000   0.90010109  -0.18909474  -0.18909474    1.1610537   0.84676419  -0.18909474    1.3501484   421400 
 5251000   0.89793427  -0.18955214  -0.18955214    1.1573461   0.84537868  -0.18955214    1.3468982   421400 
 5252000   0.90025397  -0.19030344  -0.19030344    1.1600743   0.84469677  -0.19030344    1.3503778   421400 
 5253000    0.9014296  -0.19025649  -0.19025649    1.1618847   0.84589511  -0.19025649    1.3521412   421400 
 5254000   0.90006746  -0.18982832  -0.18982832    1.1602697   0.84706668  -0.18982832     1.350098   421400 
 5255000   0.90025521  -0.19031349  -0.19031349    1.1600661   0.84339098  -0.19031349    1.3503796   421400 
 5256000   0.89852575  -0.19076646  -0.19076646     1.157019   0.84403034  -0.19076646    1.3477854   421400 
 5257000   0.90103101  -0.18972875  -0.18972875    1.1618146   0.84483625  -0.18972875    1.3515433   421400 
 5258000   0.90242273  -0.18966301  -0.18966301    1.1639679   0.84758644  -0.18966301    1.3536309   421400 
 5259000   0.90052823  -0.19101052  -0.19101052    1.1597786     0.843303  -0.19101052    1.3507891   421400 
 5260000   0.89827987  -0.18955218  -0.18955218    1.1578644   0.84652061  -0.18955218    1.3474166   421400 
 5261000   0.90021204  -0.18922337  -0.18922337    1.1610915   0.84759356  -0.18922337    1.3503149   421400 
 5262000   0.90019236  -0.19048457  -0.19048457    1.1598008   0.84288647  -0.19048457    1.3502853   421400 
 5263000   0.90011904  -0.18958275  -0.18958275    1.1605926   0.84738987  -0.18958275    1.3501754   421400 
 5264000   0.90083252  -0.19090777  -0.19090777    1.1603378    0.8443497  -0.19090777    1.3512456   421400 
 5265000   0.89957057  -0.18975224  -0.18975224    1.1596004   0.84733713  -0.18975224    1.3493527   421400 
 5266000   0.89872402  -0.18960144  -0.18960144    1.1584814   0.84640288  -0.18960144    1.3480828   421400 
 5267000   0.89702618  -0.18981878  -0.18981878    1.1557173   0.84342436  -0.18981878    1.3455361   421400 
 5268000   0.89915343  -0.19065584  -0.19065584    1.1580711   0.84375112  -0.19065584    1.3487269   421400 
 5269000   0.90014116  -0.19018779  -0.19018779    1.1600208    0.8455682  -0.19018779    1.3502085   421400 
 5270000   0.89835428   -0.1905649   -0.1905649    1.1569633   0.84332315   -0.1905649    1.3475282   421400 
 5271000   0.89932339  -0.18961917  -0.18961917    1.1593627   0.84650912  -0.18961917    1.3489819   421400 
 5272000   0.90085391  -0.19099112  -0.19099112    1.1602865   0.84437225  -0.19099112    1.3512777   421400 
 5273000    0.8999624  -0.18949296  -0.18949296    1.1604474   0.84684235  -0.18949296    1.3499404   421400 
 5274000   0.89975627   -0.1897283   -0.1897283    1.1599029   0.84606115   -0.1897283    1.3496312   421400 
 5275000   0.89946994  -0.19093233  -0.19093233    1.1582694   0.84231167  -0.19093233    1.3492017   421400 
 5276000   0.89871266  -0.19055026  -0.19055026    1.1575155    0.8436132  -0.19055026    1.3480658   421400 
 5277000   0.90141744  -0.19057545  -0.19057545    1.1615475   0.84556596  -0.19057545    1.3521229   421400 
 5278000   0.90177714  -0.19096481  -0.19096481    1.1616977   0.84333129  -0.19096481    1.3526625   421400 
 5279000   0.90006929  -0.19033248  -0.19033248    1.1597683   0.84442837  -0.19033248    1.3501007   421400 
 5280000   0.90066306  -0.19109929  -0.19109929    1.1598921   0.84449993  -0.19109929    1.3509914   421400 
 5281000   0.89823599  -0.19135525  -0.19135525    1.1559955   0.84139446  -0.19135525    1.3473508   421400 
 5282000   0.90027236  -0.19163839  -0.19163839    1.1587669   0.84147644  -0.19163839    1.3504053   421400 
 5283000   0.90035265  -0.19080479  -0.19080479     1.159721   0.84143164  -0.19080479    1.3505258   421400 
 5284000   0.90037737  -0.19023121  -0.19023121    1.1603316   0.84500801  -0.19023121    1.3505629   421400 
 5285000   0.90156162  -0.19086161  -0.19086161    1.1614776   0.84251583  -0.19086161    1.3523392   421400 
 5286000   0.90177808  -0.18969115  -0.18969115    1.1629728   0.84651325  -0.18969115    1.3526639   421400 
 5287000   0.90201942  -0.19086866  -0.19086866    1.1621573   0.84213646  -0.19086866    1.3530259   421400 
 5288000   0.90041422  -0.18947259  -0.18947259    1.1611455   0.84766202  -0.18947259    1.3506181   421400 
 5289000   0.90071805  -0.19116984  -0.19116984     1.159904   0.84201416  -0.19116984    1.3510739   421400 
 5290000   0.89910313  -0.19100141  -0.19100141    1.1576501   0.84307061  -0.19100141    1.3486515   421400 
 5291000   0.89887181  -0.19006678  -0.19006678    1.1582377   0.84682974  -0.19006678    1.3483045   421400 
 5292000   0.89924853  -0.19091125  -0.19091125    1.1579583   0.84117953  -0.19091125    1.3488696   421400 
 5293000   0.90010275  -0.19050329  -0.19050329    1.1596476   0.84531797  -0.19050329    1.3501509   421400 
 5294000   0.90177852  -0.18964046  -0.18964046    1.1630241      0.84789  -0.18964046    1.3526646   421400 
 5295000   0.90153466  -0.19047035  -0.19047035    1.1618284    0.8455081  -0.19047035    1.3522988   421400 
 5296000   0.89962618  -0.19050374  -0.19050374    1.1589323    0.8449077  -0.19050374    1.3494361   421400 
 5297000   0.89712786  -0.18928438  -0.18928438    1.1564042   0.84740078  -0.18928438    1.3456886   421400 
 5298000   0.89960422  -0.19042298  -0.19042298    1.1589801   0.84371642  -0.19042298    1.3494031   421400 
 5299000   0.89767781  -0.18978021  -0.18978021    1.1567333   0.84576423  -0.18978021    1.3465135   421400 
