#LAMMPS data file for rigid bodies
1331 atoms
2 atom types

0 40 xlo xhi
0 40 ylo yhi
0 40 zlo zhi

Masses

1 1
2 1

Atoms

1	1	2	0	15	15	15
2	1	2	0	15	15	16
3	1	2	0	15	15	17
4	1	2	0	15	15	18
5	1	2	0	15	15	19
6	1	2	0	15	15	20
7	1	2	0	15	15	21
8	1	2	0	15	15	22
9	1	2	0	15	15	23
10	1	2	0	15	15	24
11	1	2	0	15	15	25
12	1	2	0	15	16	15
13	1	2	0	15	16	16
14	1	2	0	15	16	17
15	1	2	0	15	16	18
16	1	2	0	15	16	19
17	1	2	0	15	16	20
18	1	2	0	15	16	21
19	1	2	0	15	16	22
20	1	2	0	15	16	23
21	1	2	0	15	16	24
22	1	2	0	15	16	25
23	1	2	0	15	17	15
24	1	2	0	15	17	16
25	1	2	0	15	17	17
26	1	2	0	15	17	18
27	1	2	0	15	17	19
28	1	2	0	15	17	20
29	1	2	0	15	17	21
30	1	2	0	15	17	22
31	1	2	0	15	17	23
32	1	2	0	15	17	24
33	1	2	0	15	17	25
34	1	2	0	15	18	15
35	1	2	0	15	18	16
36	1	2	0	15	18	17
37	1	2	0	15	18	18
38	1	2	0	15	18	19
39	1	2	0	15	18	20
40	1	2	0	15	18	21
41	1	2	0	15	18	22
42	1	2	0	15	18	23
43	1	2	0	15	18	24
44	1	2	0	15	18	25
45	1	2	0	15	19	15
46	1	2	0	15	19	16
47	1	2	0	15	19	17
48	1	2	0	15	19	18
49	1	2	0	15	19	19
50	1	2	0	15	19	20
51	1	2	0	15	19	21
52	1	2	0	15	19	22
53	1	2	0	15	19	23
54	1	2	0	15	19	24
55	1	2	0	15	19	25
56	1	2	0	15	20	15
57	1	2	0	15	20	16
58	1	2	0	15	20	17
59	1	2	0	15	20	18
60	1	2	0	15	20	19
61	1	2	0	15	20	20
62	1	2	0	15	20	21
63	1	2	0	15	20	22
64	1	2	0	15	20	23
65	1	2	0	15	20	24
66	1	2	0	15	20	25
67	1	2	0	15	21	15
68	1	2	0	15	21	16
69	1	2	0	15	21	17
70	1	2	0	15	21	18
71	1	2	0	15	21	19
72	1	2	0	15	21	20
73	1	2	0	15	21	21
74	1	2	0	15	21	22
75	1	2	0	15	21	23
76	1	2	0	15	21	24
77	1	2	0	15	21	25
78	1	2	0	15	22	15
79	1	2	0	15	22	16
80	1	2	0	15	22	17
81	1	2	0	15	22	18
82	1	2	0	15	22	19
83	1	2	0	15	22	20
84	1	2	0	15	22	21
85	1	2	0	15	22	22
86	1	2	0	15	22	23
87	1	2	0	15	22	24
88	1	2	0	15	22	25
89	1	2	0	15	23	15
90	1	2	0	15	23	16
91	1	2	0	15	23	17
92	1	2	0	15	23	18
93	1	2	0	15	23	19
94	1	2	0	15	23	20
95	1	2	0	15	23	21
96	1	2	0	15	23	22
97	1	2	0	15	23	23
98	1	2	0	15	23	24
99	1	2	0	15	23	25
100	1	2	0	15	24	15
101	1	2	0	15	24	16
102	1	2	0	15	24	17
103	1	2	0	15	24	18
104	1	2	0	15	24	19
105	1	2	0	15	24	20
106	1	2	0	15	24	21
107	1	2	0	15	24	22
108	1	2	0	15	24	23
109	1	2	0	15	24	24
110	1	2	0	15	24	25
111	1	2	0	15	25	15
112	1	2	0	15	25	16
113	1	2	0	15	25	17
114	1	2	0	15	25	18
115	1	2	0	15	25	19
116	1	2	0	15	25	20
117	1	2	0	15	25	21
118	1	2	0	15	25	22
119	1	2	0	15	25	23
120	1	2	0	15	25	24
121	1	2	0	15	25	25
122	1	2	0	16	15	15
123	1	2	0	16	15	16
124	1	2	0	16	15	17
125	1	2	0	16	15	18
126	1	2	0	16	15	19
127	1	2	0	16	15	20
128	1	2	0	16	15	21
129	1	2	0	16	15	22
130	1	2	0	16	15	23
131	1	2	0	16	15	24
132	1	2	0	16	15	25
133	1	2	0	16	16	15
134	1	1	0	16	16	16
135	1	1	0	16	16	17
136	1	1	0	16	16	18
137	1	1	0	16	16	19
138	1	1	0	16	16	20
139	1	1	0	16	16	21
140	1	1	0	16	16	22
141	1	1	0	16	16	23
142	1	1	0	16	16	24
143	1	2	0	16	16	25
144	1	2	0	16	17	15
145	1	1	0	16	17	16
146	1	1	0	16	17	17
147	1	1	0	16	17	18
148	1	1	0	16	17	19
149	1	1	0	16	17	20
150	1	1	0	16	17	21
151	1	1	0	16	17	22
152	1	1	0	16	17	23
153	1	1	0	16	17	24
154	1	2	0	16	17	25
155	1	2	0	16	18	15
156	1	1	0	16	18	16
157	1	1	0	16	18	17
158	1	1	0	16	18	18
159	1	1	0	16	18	19
160	1	1	0	16	18	20
161	1	1	0	16	18	21
162	1	1	0	16	18	22
163	1	1	0	16	18	23
164	1	1	0	16	18	24
165	1	2	0	16	18	25
166	1	2	0	16	19	15
167	1	1	0	16	19	16
168	1	1	0	16	19	17
169	1	1	0	16	19	18
170	1	1	0	16	19	19
171	1	1	0	16	19	20
172	1	1	0	16	19	21
173	1	1	0	16	19	22
174	1	1	0	16	19	23
175	1	1	0	16	19	24
176	1	2	0	16	19	25
177	1	2	0	16	20	15
178	1	1	0	16	20	16
179	1	1	0	16	20	17
180	1	1	0	16	20	18
181	1	1	0	16	20	19
182	1	1	0	16	20	20
183	1	1	0	16	20	21
184	1	1	0	16	20	22
185	1	1	0	16	20	23
186	1	1	0	16	20	24
187	1	2	0	16	20	25
188	1	2	0	16	21	15
189	1	1	0	16	21	16
190	1	1	0	16	21	17
191	1	1	0	16	21	18
192	1	1	0	16	21	19
193	1	1	0	16	21	20
194	1	1	0	16	21	21
195	1	1	0	16	21	22
196	1	1	0	16	21	23
197	1	1	0	16	21	24
198	1	2	0	16	21	25
199	1	2	0	16	22	15
200	1	1	0	16	22	16
201	1	1	0	16	22	17
202	1	1	0	16	22	18
203	1	1	0	16	22	19
204	1	1	0	16	22	20
205	1	1	0	16	22	21
206	1	1	0	16	22	22
207	1	1	0	16	22	23
208	1	1	0	16	22	24
209	1	2	0	16	22	25
210	1	2	0	16	23	15
211	1	1	0	16	23	16
212	1	1	0	16	23	17
213	1	1	0	16	23	18
214	1	1	0	16	23	19
215	1	1	0	16	23	20
216	1	1	0	16	23	21
217	1	1	0	16	23	22
218	1	1	0	16	23	23
219	1	1	0	16	23	24
220	1	2	0	16	23	25
221	1	2	0	16	24	15
222	1	1	0	16	24	16
223	1	1	0	16	24	17
224	1	1	0	16	24	18
225	1	1	0	16	24	19
226	1	1	0	16	24	20
227	1	1	0	16	24	21
228	1	1	0	16	24	22
229	1	1	0	16	24	23
230	1	1	0	16	24	24
231	1	2	0	16	24	25
232	1	2	0	16	25	15
233	1	2	0	16	25	16
234	1	2	0	16	25	17
235	1	2	0	16	25	18
236	1	2	0	16	25	19
237	1	2	0	16	25	20
238	1	2	0	16	25	21
239	1	2	0	16	25	22
240	1	2	0	16	25	23
241	1	2	0	16	25	24
242	1	2	0	16	25	25
243	1	2	0	17	15	15
244	1	2	0	17	15	16
245	1	2	0	17	15	17
246	1	2	0	17	15	18
247	1	2	0	17	15	19
248	1	2	0	17	15	20
249	1	2	0	17	15	21
250	1	2	0	17	15	22
251	1	2	0	17	15	23
252	1	2	0	17	15	24
253	1	2	0	17	15	25
254	1	2	0	17	16	15
255	1	1	0	17	16	16
256	1	1	0	17	16	17
257	1	1	0	17	16	18
258	1	1	0	17	16	19
259	1	1	0	17	16	20
260	1	1	0	17	16	21
261	1	1	0	17	16	22
262	1	1	0	17	16	23
263	1	1	0	17	16	24
264	1	2	0	17	16	25
265	1	2	0	17	17	15
266	1	1	0	17	17	16
267	1	1	0	17	17	17
268	1	1	0	17	17	18
269	1	1	0	17	17	19
270	1	1	0	17	17	20
271	1	1	0	17	17	21
272	1	1	0	17	17	22
273	1	1	0	17	17	23
274	1	1	0	17	17	24
275	1	2	0	17	17	25
276	1	2	0	17	18	15
277	1	1	0	17	18	16
278	1	1	0	17	18	17
279	1	1	0	17	18	18
280	1	1	0	17	18	19
281	1	1	0	17	18	20
282	1	1	0	17	18	21
283	1	1	0	17	18	22
284	1	1	0	17	18	23
285	1	1	0	17	18	24
286	1	2	0	17	18	25
287	1	2	0	17	19	15
288	1	1	0	17	19	16
289	1	1	0	17	19	17
290	1	1	0	17	19	18
291	1	1	0	17	19	19
292	1	1	0	17	19	20
293	1	1	0	17	19	21
294	1	1	0	17	19	22
295	1	1	0	17	19	23
296	1	1	0	17	19	24
297	1	2	0	17	19	25
298	1	2	0	17	20	15
299	1	1	0	17	20	16
300	1	1	0	17	20	17
301	1	1	0	17	20	18
302	1	1	0	17	20	19
303	1	1	0	17	20	20
304	1	1	0	17	20	21
305	1	1	0	17	20	22
306	1	1	0	17	20	23
307	1	1	0	17	20	24
308	1	2	0	17	20	25
309	1	2	0	17	21	15
310	1	1	0	17	21	16
311	1	1	0	17	21	17
312	1	1	0	17	21	18
313	1	1	0	17	21	19
314	1	1	0	17	21	20
315	1	1	0	17	21	21
316	1	1	0	17	21	22
317	1	1	0	17	21	23
318	1	1	0	17	21	24
319	1	2	0	17	21	25
320	1	2	0	17	22	15
321	1	1	0	17	22	16
322	1	1	0	17	22	17
323	1	1	0	17	22	18
324	1	1	0	17	22	19
325	1	1	0	17	22	20
326	1	1	0	17	22	21
327	1	1	0	17	22	22
328	1	1	0	17	22	23
329	1	1	0	17	22	24
330	1	2	0	17	22	25
331	1	2	0	17	23	15
332	1	1	0	17	23	16
333	1	1	0	17	23	17
334	1	1	0	17	23	18
335	1	1	0	17	23	19
336	1	1	0	17	23	20
337	1	1	0	17	23	21
338	1	1	0	17	23	22
339	1	1	0	17	23	23
340	1	1	0	17	23	24
341	1	2	0	17	23	25
342	1	2	0	17	24	15
343	1	1	0	17	24	16
344	1	1	0	17	24	17
345	1	1	0	17	24	18
346	1	1	0	17	24	19
347	1	1	0	17	24	20
348	1	1	0	17	24	21
349	1	1	0	17	24	22
350	1	1	0	17	24	23
351	1	1	0	17	24	24
352	1	2	0	17	24	25
353	1	2	0	17	25	15
354	1	2	0	17	25	16
355	1	2	0	17	25	17
356	1	2	0	17	25	18
357	1	2	0	17	25	19
358	1	2	0	17	25	20
359	1	2	0	17	25	21
360	1	2	0	17	25	22
361	1	2	0	17	25	23
362	1	2	0	17	25	24
363	1	2	0	17	25	25
364	1	2	0	18	15	15
365	1	2	0	18	15	16
366	1	2	0	18	15	17
367	1	2	0	18	15	18
368	1	2	0	18	15	19
369	1	2	0	18	15	20
370	1	2	0	18	15	21
371	1	2	0	18	15	22
372	1	2	0	18	15	23
373	1	2	0	18	15	24
374	1	2	0	18	15	25
375	1	2	0	18	16	15
376	1	1	0	18	16	16
377	1	1	0	18	16	17
378	1	1	0	18	16	18
379	1	1	0	18	16	19
380	1	1	0	18	16	20
381	1	1	0	18	16	21
382	1	1	0	18	16	22
383	1	1	0	18	16	23
384	1	1	0	18	16	24
385	1	2	0	18	16	25
386	1	2	0	18	17	15
387	1	1	0	18	17	16
388	1	1	0	18	17	17
389	1	1	0	18	17	18
390	1	1	0	18	17	19
391	1	1	0	18	17	20
392	1	1	0	18	17	21
393	1	1	0	18	17	22
394	1	1	0	18	17	23
395	1	1	0	18	17	24
396	1	2	0	18	17	25
397	1	2	0	18	18	15
398	1	1	0	18	18	16
399	1	1	0	18	18	17
400	1	1	0	18	18	18
401	1	1	0	18	18	19
402	1	1	0	18	18	20
403	1	1	0	18	18	21
404	1	1	0	18	18	22
405	1	1	0	18	18	23
406	1	1	0	18	18	24
407	1	2	0	18	18	25
408	1	2	0	18	19	15
409	1	1	0	18	19	16
410	1	1	0	18	19	17
411	1	1	0	18	19	18
412	1	1	0	18	19	19
413	1	1	0	18	19	20
414	1	1	0	18	19	21
415	1	1	0	18	19	22
416	1	1	0	18	19	23
417	1	1	0	18	19	24
418	1	2	0	18	19	25
419	1	2	0	18	20	15
420	1	1	0	18	20	16
421	1	1	0	18	20	17
422	1	1	0	18	20	18
423	1	1	0	18	20	19
424	1	1	0	18	20	20
425	1	1	0	18	20	21
426	1	1	0	18	20	22
427	1	1	0	18	20	23
428	1	1	0	18	20	24
429	1	2	0	18	20	25
430	1	2	0	18	21	15
431	1	1	0	18	21	16
432	1	1	0	18	21	17
433	1	1	0	18	21	18
434	1	1	0	18	21	19
435	1	1	0	18	21	20
436	1	1	0	18	21	21
437	1	1	0	18	21	22
438	1	1	0	18	21	23
439	1	1	0	18	21	24
440	1	2	0	18	21	25
441	1	2	0	18	22	15
442	1	1	0	18	22	16
443	1	1	0	18	22	17
444	1	1	0	18	22	18
445	1	1	0	18	22	19
446	1	1	0	18	22	20
447	1	1	0	18	22	21
448	1	1	0	18	22	22
449	1	1	0	18	22	23
450	1	1	0	18	22	24
451	1	2	0	18	22	25
452	1	2	0	18	23	15
453	1	1	0	18	23	16
454	1	1	0	18	23	17
455	1	1	0	18	23	18
456	1	1	0	18	23	19
457	1	1	0	18	23	20
458	1	1	0	18	23	21
459	1	1	0	18	23	22
460	1	1	0	18	23	23
461	1	1	0	18	23	24
462	1	2	0	18	23	25
463	1	2	0	18	24	15
464	1	1	0	18	24	16
465	1	1	0	18	24	17
466	1	1	0	18	24	18
467	1	1	0	18	24	19
468	1	1	0	18	24	20
469	1	1	0	18	24	21
470	1	1	0	18	24	22
471	1	1	0	18	24	23
472	1	1	0	18	24	24
473	1	2	0	18	24	25
474	1	2	0	18	25	15
475	1	2	0	18	25	16
476	1	2	0	18	25	17
477	1	2	0	18	25	18
478	1	2	0	18	25	19
479	1	2	0	18	25	20
480	1	2	0	18	25	21
481	1	2	0	18	25	22
482	1	2	0	18	25	23
483	1	2	0	18	25	24
484	1	2	0	18	25	25
485	1	2	0	19	15	15
486	1	2	0	19	15	16
487	1	2	0	19	15	17
488	1	2	0	19	15	18
489	1	2	0	19	15	19
490	1	2	0	19	15	20
491	1	2	0	19	15	21
492	1	2	0	19	15	22
493	1	2	0	19	15	23
494	1	2	0	19	15	24
495	1	2	0	19	15	25
496	1	2	0	19	16	15
497	1	1	0	19	16	16
498	1	1	0	19	16	17
499	1	1	0	19	16	18
500	1	1	0	19	16	19
501	1	1	0	19	16	20
502	1	1	0	19	16	21
503	1	1	0	19	16	22
504	1	1	0	19	16	23
505	1	1	0	19	16	24
506	1	2	0	19	16	25
507	1	2	0	19	17	15
508	1	1	0	19	17	16
509	1	1	0	19	17	17
510	1	1	0	19	17	18
511	1	1	0	19	17	19
512	1	1	0	19	17	20
513	1	1	0	19	17	21
514	1	1	0	19	17	22
515	1	1	0	19	17	23
516	1	1	0	19	17	24
517	1	2	0	19	17	25
518	1	2	0	19	18	15
519	1	1	0	19	18	16
520	1	1	0	19	18	17
521	1	1	0	19	18	18
522	1	1	0	19	18	19
523	1	1	0	19	18	20
524	1	1	0	19	18	21
525	1	1	0	19	18	22
526	1	1	0	19	18	23
527	1	1	0	19	18	24
528	1	2	0	19	18	25
529	1	2	0	19	19	15
530	1	1	0	19	19	16
531	1	1	0	19	19	17
532	1	1	0	19	19	18
533	1	1	0	19	19	19
534	1	1	0	19	19	20
535	1	1	0	19	19	21
536	1	1	0	19	19	22
537	1	1	0	19	19	23
538	1	1	0	19	19	24
539	1	2	0	19	19	25
540	1	2	0	19	20	15
541	1	1	0	19	20	16
542	1	1	0	19	20	17
543	1	1	0	19	20	18
544	1	1	0	19	20	19
545	1	1	0	19	20	20
546	1	1	0	19	20	21
547	1	1	0	19	20	22
548	1	1	0	19	20	23
549	1	1	0	19	20	24
550	1	2	0	19	20	25
551	1	2	0	19	21	15
552	1	1	0	19	21	16
553	1	1	0	19	21	17
554	1	1	0	19	21	18
555	1	1	0	19	21	19
556	1	1	0	19	21	20
557	1	1	0	19	21	21
558	1	1	0	19	21	22
559	1	1	0	19	21	23
560	1	1	0	19	21	24
561	1	2	0	19	21	25
562	1	2	0	19	22	15
563	1	1	0	19	22	16
564	1	1	0	19	22	17
565	1	1	0	19	22	18
566	1	1	0	19	22	19
567	1	1	0	19	22	20
568	1	1	0	19	22	21
569	1	1	0	19	22	22
570	1	1	0	19	22	23
571	1	1	0	19	22	24
572	1	2	0	19	22	25
573	1	2	0	19	23	15
574	1	1	0	19	23	16
575	1	1	0	19	23	17
576	1	1	0	19	23	18
577	1	1	0	19	23	19
578	1	1	0	19	23	20
579	1	1	0	19	23	21
580	1	1	0	19	23	22
581	1	1	0	19	23	23
582	1	1	0	19	23	24
583	1	2	0	19	23	25
584	1	2	0	19	24	15
585	1	1	0	19	24	16
586	1	1	0	19	24	17
587	1	1	0	19	24	18
588	1	1	0	19	24	19
589	1	1	0	19	24	20
590	1	1	0	19	24	21
591	1	1	0	19	24	22
592	1	1	0	19	24	23
593	1	1	0	19	24	24
594	1	2	0	19	24	25
595	1	2	0	19	25	15
596	1	2	0	19	25	16
597	1	2	0	19	25	17
598	1	2	0	19	25	18
599	1	2	0	19	25	19
600	1	2	0	19	25	20
601	1	2	0	19	25	21
602	1	2	0	19	25	22
603	1	2	0	19	25	23
604	1	2	0	19	25	24
605	1	2	0	19	25	25
606	1	2	0	20	15	15
607	1	2	0	20	15	16
608	1	2	0	20	15	17
609	1	2	0	20	15	18
610	1	2	0	20	15	19
611	1	2	0	20	15	20
612	1	2	0	20	15	21
613	1	2	0	20	15	22
614	1	2	0	20	15	23
615	1	2	0	20	15	24
616	1	2	0	20	15	25
617	1	2	0	20	16	15
618	1	1	0	20	16	16
619	1	1	0	20	16	17
620	1	1	0	20	16	18
621	1	1	0	20	16	19
622	1	1	0	20	16	20
623	1	1	0	20	16	21
624	1	1	0	20	16	22
625	1	1	0	20	16	23
626	1	1	0	20	16	24
627	1	2	0	20	16	25
628	1	2	0	20	17	15
629	1	1	0	20	17	16
630	1	1	0	20	17	17
631	1	1	0	20	17	18
632	1	1	0	20	17	19
633	1	1	0	20	17	20
634	1	1	0	20	17	21
635	1	1	0	20	17	22
636	1	1	0	20	17	23
637	1	1	0	20	17	24
638	1	2	0	20	17	25
639	1	2	0	20	18	15
640	1	1	0	20	18	16
641	1	1	0	20	18	17
642	1	1	0	20	18	18
643	1	1	0	20	18	19
644	1	1	0	20	18	20
645	1	1	0	20	18	21
646	1	1	0	20	18	22
647	1	1	0	20	18	23
648	1	1	0	20	18	24
649	1	2	0	20	18	25
650	1	2	0	20	19	15
651	1	1	0	20	19	16
652	1	1	0	20	19	17
653	1	1	0	20	19	18
654	1	1	0	20	19	19
655	1	1	0	20	19	20
656	1	1	0	20	19	21
657	1	1	0	20	19	22
658	1	1	0	20	19	23
659	1	1	0	20	19	24
660	1	2	0	20	19	25
661	1	2	0	20	20	15
662	1	1	0	20	20	16
663	1	1	0	20	20	17
664	1	1	0	20	20	18
665	1	1	0	20	20	19
666	1	1	0	20	20	20
667	1	1	0	20	20	21
668	1	1	0	20	20	22
669	1	1	0	20	20	23
670	1	1	0	20	20	24
671	1	2	0	20	20	25
672	1	2	0	20	21	15
673	1	1	0	20	21	16
674	1	1	0	20	21	17
675	1	1	0	20	21	18
676	1	1	0	20	21	19
677	1	1	0	20	21	20
678	1	1	0	20	21	21
679	1	1	0	20	21	22
680	1	1	0	20	21	23
681	1	1	0	20	21	24
682	1	2	0	20	21	25
683	1	2	0	20	22	15
684	1	1	0	20	22	16
685	1	1	0	20	22	17
686	1	1	0	20	22	18
687	1	1	0	20	22	19
688	1	1	0	20	22	20
689	1	1	0	20	22	21
690	1	1	0	20	22	22
691	1	1	0	20	22	23
692	1	1	0	20	22	24
693	1	2	0	20	22	25
694	1	2	0	20	23	15
695	1	1	0	20	23	16
696	1	1	0	20	23	17
697	1	1	0	20	23	18
698	1	1	0	20	23	19
699	1	1	0	20	23	20
700	1	1	0	20	23	21
701	1	1	0	20	23	22
702	1	1	0	20	23	23
703	1	1	0	20	23	24
704	1	2	0	20	23	25
705	1	2	0	20	24	15
706	1	1	0	20	24	16
707	1	1	0	20	24	17
708	1	1	0	20	24	18
709	1	1	0	20	24	19
710	1	1	0	20	24	20
711	1	1	0	20	24	21
712	1	1	0	20	24	22
713	1	1	0	20	24	23
714	1	1	0	20	24	24
715	1	2	0	20	24	25
716	1	2	0	20	25	15
717	1	2	0	20	25	16
718	1	2	0	20	25	17
719	1	2	0	20	25	18
720	1	2	0	20	25	19
721	1	2	0	20	25	20
722	1	2	0	20	25	21
723	1	2	0	20	25	22
724	1	2	0	20	25	23
725	1	2	0	20	25	24
726	1	2	0	20	25	25
727	1	2	0	21	15	15
728	1	2	0	21	15	16
729	1	2	0	21	15	17
730	1	2	0	21	15	18
731	1	2	0	21	15	19
732	1	2	0	21	15	20
733	1	2	0	21	15	21
734	1	2	0	21	15	22
735	1	2	0	21	15	23
736	1	2	0	21	15	24
737	1	2	0	21	15	25
738	1	2	0	21	16	15
739	1	1	0	21	16	16
740	1	1	0	21	16	17
741	1	1	0	21	16	18
742	1	1	0	21	16	19
743	1	1	0	21	16	20
744	1	1	0	21	16	21
745	1	1	0	21	16	22
746	1	1	0	21	16	23
747	1	1	0	21	16	24
748	1	2	0	21	16	25
749	1	2	0	21	17	15
750	1	1	0	21	17	16
751	1	1	0	21	17	17
752	1	1	0	21	17	18
753	1	1	0	21	17	19
754	1	1	0	21	17	20
755	1	1	0	21	17	21
756	1	1	0	21	17	22
757	1	1	0	21	17	23
758	1	1	0	21	17	24
759	1	2	0	21	17	25
760	1	2	0	21	18	15
761	1	1	0	21	18	16
762	1	1	0	21	18	17
763	1	1	0	21	18	18
764	1	1	0	21	18	19
765	1	1	0	21	18	20
766	1	1	0	21	18	21
767	1	1	0	21	18	22
768	1	1	0	21	18	23
769	1	1	0	21	18	24
770	1	2	0	21	18	25
771	1	2	0	21	19	15
772	1	1	0	21	19	16
773	1	1	0	21	19	17
774	1	1	0	21	19	18
775	1	1	0	21	19	19
776	1	1	0	21	19	20
777	1	1	0	21	19	21
778	1	1	0	21	19	22
779	1	1	0	21	19	23
780	1	1	0	21	19	24
781	1	2	0	21	19	25
782	1	2	0	21	20	15
783	1	1	0	21	20	16
784	1	1	0	21	20	17
785	1	1	0	21	20	18
786	1	1	0	21	20	19
787	1	1	0	21	20	20
788	1	1	0	21	20	21
789	1	1	0	21	20	22
790	1	1	0	21	20	23
791	1	1	0	21	20	24
792	1	2	0	21	20	25
793	1	2	0	21	21	15
794	1	1	0	21	21	16
795	1	1	0	21	21	17
796	1	1	0	21	21	18
797	1	1	0	21	21	19
798	1	1	0	21	21	20
799	1	1	0	21	21	21
800	1	1	0	21	21	22
801	1	1	0	21	21	23
802	1	1	0	21	21	24
803	1	2	0	21	21	25
804	1	2	0	21	22	15
805	1	1	0	21	22	16
806	1	1	0	21	22	17
807	1	1	0	21	22	18
808	1	1	0	21	22	19
809	1	1	0	21	22	20
810	1	1	0	21	22	21
811	1	1	0	21	22	22
812	1	1	0	21	22	23
813	1	1	0	21	22	24
814	1	2	0	21	22	25
815	1	2	0	21	23	15
816	1	1	0	21	23	16
817	1	1	0	21	23	17
818	1	1	0	21	23	18
819	1	1	0	21	23	19
820	1	1	0	21	23	20
821	1	1	0	21	23	21
822	1	1	0	21	23	22
823	1	1	0	21	23	23
824	1	1	0	21	23	24
825	1	2	0	21	23	25
826	1	2	0	21	24	15
827	1	1	0	21	24	16
828	1	1	0	21	24	17
829	1	1	0	21	24	18
830	1	1	0	21	24	19
831	1	1	0	21	24	20
832	1	1	0	21	24	21
833	1	1	0	21	24	22
834	1	1	0	21	24	23
835	1	1	0	21	24	24
836	1	2	0	21	24	25
837	1	2	0	21	25	15
838	1	2	0	21	25	16
839	1	2	0	21	25	17
840	1	2	0	21	25	18
841	1	2	0	21	25	19
842	1	2	0	21	25	20
843	1	2	0	21	25	21
844	1	2	0	21	25	22
845	1	2	0	21	25	23
846	1	2	0	21	25	24
847	1	2	0	21	25	25
848	1	2	0	22	15	15
849	1	2	0	22	15	16
850	1	2	0	22	15	17
851	1	2	0	22	15	18
852	1	2	0	22	15	19
853	1	2	0	22	15	20
854	1	2	0	22	15	21
855	1	2	0	22	15	22
856	1	2	0	22	15	23
857	1	2	0	22	15	24
858	1	2	0	22	15	25
859	1	2	0	22	16	15
860	1	1	0	22	16	16
861	1	1	0	22	16	17
862	1	1	0	22	16	18
863	1	1	0	22	16	19
864	1	1	0	22	16	20
865	1	1	0	22	16	21
866	1	1	0	22	16	22
867	1	1	0	22	16	23
868	1	1	0	22	16	24
869	1	2	0	22	16	25
870	1	2	0	22	17	15
871	1	1	0	22	17	16
872	1	1	0	22	17	17
873	1	1	0	22	17	18
874	1	1	0	22	17	19
875	1	1	0	22	17	20
876	1	1	0	22	17	21
877	1	1	0	22	17	22
878	1	1	0	22	17	23
879	1	1	0	22	17	24
880	1	2	0	22	17	25
881	1	2	0	22	18	15
882	1	1	0	22	18	16
883	1	1	0	22	18	17
884	1	1	0	22	18	18
885	1	1	0	22	18	19
886	1	1	0	22	18	20
887	1	1	0	22	18	21
888	1	1	0	22	18	22
889	1	1	0	22	18	23
890	1	1	0	22	18	24
891	1	2	0	22	18	25
892	1	2	0	22	19	15
893	1	1	0	22	19	16
894	1	1	0	22	19	17
895	1	1	0	22	19	18
896	1	1	0	22	19	19
897	1	1	0	22	19	20
898	1	1	0	22	19	21
899	1	1	0	22	19	22
900	1	1	0	22	19	23
901	1	1	0	22	19	24
902	1	2	0	22	19	25
903	1	2	0	22	20	15
904	1	1	0	22	20	16
905	1	1	0	22	20	17
906	1	1	0	22	20	18
907	1	1	0	22	20	19
908	1	1	0	22	20	20
909	1	1	0	22	20	21
910	1	1	0	22	20	22
911	1	1	0	22	20	23
912	1	1	0	22	20	24
913	1	2	0	22	20	25
914	1	2	0	22	21	15
915	1	1	0	22	21	16
916	1	1	0	22	21	17
917	1	1	0	22	21	18
918	1	1	0	22	21	19
919	1	1	0	22	21	20
920	1	1	0	22	21	21
921	1	1	0	22	21	22
922	1	1	0	22	21	23
923	1	1	0	22	21	24
924	1	2	0	22	21	25
925	1	2	0	22	22	15
926	1	1	0	22	22	16
927	1	1	0	22	22	17
928	1	1	0	22	22	18
929	1	1	0	22	22	19
930	1	1	0	22	22	20
931	1	1	0	22	22	21
932	1	1	0	22	22	22
933	1	1	0	22	22	23
934	1	1	0	22	22	24
935	1	2	0	22	22	25
936	1	2	0	22	23	15
937	1	1	0	22	23	16
938	1	1	0	22	23	17
939	1	1	0	22	23	18
940	1	1	0	22	23	19
941	1	1	0	22	23	20
942	1	1	0	22	23	21
943	1	1	0	22	23	22
944	1	1	0	22	23	23
945	1	1	0	22	23	24
946	1	2	0	22	23	25
947	1	2	0	22	24	15
948	1	1	0	22	24	16
949	1	1	0	22	24	17
950	1	1	0	22	24	18
951	1	1	0	22	24	19
952	1	1	0	22	24	20
953	1	1	0	22	24	21
954	1	1	0	22	24	22
955	1	1	0	22	24	23
956	1	1	0	22	24	24
957	1	2	0	22	24	25
958	1	2	0	22	25	15
959	1	2	0	22	25	16
960	1	2	0	22	25	17
961	1	2	0	22	25	18
962	1	2	0	22	25	19
963	1	2	0	22	25	20
964	1	2	0	22	25	21
965	1	2	0	22	25	22
966	1	2	0	22	25	23
967	1	2	0	22	25	24
968	1	2	0	22	25	25
969	1	2	0	23	15	15
970	1	2	0	23	15	16
971	1	2	0	23	15	17
972	1	2	0	23	15	18
973	1	2	0	23	15	19
974	1	2	0	23	15	20
975	1	2	0	23	15	21
976	1	2	0	23	15	22
977	1	2	0	23	15	23
978	1	2	0	23	15	24
979	1	2	0	23	15	25
980	1	2	0	23	16	15
981	1	1	0	23	16	16
982	1	1	0	23	16	17
983	1	1	0	23	16	18
984	1	1	0	23	16	19
985	1	1	0	23	16	20
986	1	1	0	23	16	21
987	1	1	0	23	16	22
988	1	1	0	23	16	23
989	1	1	0	23	16	24
990	1	2	0	23	16	25
991	1	2	0	23	17	15
992	1	1	0	23	17	16
993	1	1	0	23	17	17
994	1	1	0	23	17	18
995	1	1	0	23	17	19
996	1	1	0	23	17	20
997	1	1	0	23	17	21
998	1	1	0	23	17	22
999	1	1	0	23	17	23
1000	1	1	0	23	17	24
1001	1	2	0	23	17	25
1002	1	2	0	23	18	15
1003	1	1	0	23	18	16
1004	1	1	0	23	18	17
1005	1	1	0	23	18	18
1006	1	1	0	23	18	19
1007	1	1	0	23	18	20
1008	1	1	0	23	18	21
1009	1	1	0	23	18	22
1010	1	1	0	23	18	23
1011	1	1	0	23	18	24
1012	1	2	0	23	18	25
1013	1	2	0	23	19	15
1014	1	1	0	23	19	16
1015	1	1	0	23	19	17
1016	1	1	0	23	19	18
1017	1	1	0	23	19	19
1018	1	1	0	23	19	20
1019	1	1	0	23	19	21
1020	1	1	0	23	19	22
1021	1	1	0	23	19	23
1022	1	1	0	23	19	24
1023	1	2	0	23	19	25
1024	1	2	0	23	20	15
1025	1	1	0	23	20	16
1026	1	1	0	23	20	17
1027	1	1	0	23	20	18
1028	1	1	0	23	20	19
1029	1	1	0	23	20	20
1030	1	1	0	23	20	21
1031	1	1	0	23	20	22
1032	1	1	0	23	20	23
1033	1	1	0	23	20	24
1034	1	2	0	23	20	25
1035	1	2	0	23	21	15
1036	1	1	0	23	21	16
1037	1	1	0	23	21	17
1038	1	1	0	23	21	18
1039	1	1	0	23	21	19
1040	1	1	0	23	21	20
1041	1	1	0	23	21	21
1042	1	1	0	23	21	22
1043	1	1	0	23	21	23
1044	1	1	0	23	21	24
1045	1	2	0	23	21	25
1046	1	2	0	23	22	15
1047	1	1	0	23	22	16
1048	1	1	0	23	22	17
1049	1	1	0	23	22	18
1050	1	1	0	23	22	19
1051	1	1	0	23	22	20
1052	1	1	0	23	22	21
1053	1	1	0	23	22	22
1054	1	1	0	23	22	23
1055	1	1	0	23	22	24
1056	1	2	0	23	22	25
1057	1	2	0	23	23	15
1058	1	1	0	23	23	16
1059	1	1	0	23	23	17
1060	1	1	0	23	23	18
1061	1	1	0	23	23	19
1062	1	1	0	23	23	20
1063	1	1	0	23	23	21
1064	1	1	0	23	23	22
1065	1	1	0	23	23	23
1066	1	1	0	23	23	24
1067	1	2	0	23	23	25
1068	1	2	0	23	24	15
1069	1	1	0	23	24	16
1070	1	1	0	23	24	17
1071	1	1	0	23	24	18
1072	1	1	0	23	24	19
1073	1	1	0	23	24	20
1074	1	1	0	23	24	21
1075	1	1	0	23	24	22
1076	1	1	0	23	24	23
1077	1	1	0	23	24	24
1078	1	2	0	23	24	25
1079	1	2	0	23	25	15
1080	1	2	0	23	25	16
1081	1	2	0	23	25	17
1082	1	2	0	23	25	18
1083	1	2	0	23	25	19
1084	1	2	0	23	25	20
1085	1	2	0	23	25	21
1086	1	2	0	23	25	22
1087	1	2	0	23	25	23
1088	1	2	0	23	25	24
1089	1	2	0	23	25	25
1090	1	2	0	24	15	15
1091	1	2	0	24	15	16
1092	1	2	0	24	15	17
1093	1	2	0	24	15	18
1094	1	2	0	24	15	19
1095	1	2	0	24	15	20
1096	1	2	0	24	15	21
1097	1	2	0	24	15	22
1098	1	2	0	24	15	23
1099	1	2	0	24	15	24
1100	1	2	0	24	15	25
1101	1	2	0	24	16	15
1102	1	1	0	24	16	16
1103	1	1	0	24	16	17
1104	1	1	0	24	16	18
1105	1	1	0	24	16	19
1106	1	1	0	24	16	20
1107	1	1	0	24	16	21
1108	1	1	0	24	16	22
1109	1	1	0	24	16	23
1110	1	1	0	24	16	24
1111	1	2	0	24	16	25
1112	1	2	0	24	17	15
1113	1	1	0	24	17	16
1114	1	1	0	24	17	17
1115	1	1	0	24	17	18
1116	1	1	0	24	17	19
1117	1	1	0	24	17	20
1118	1	1	0	24	17	21
1119	1	1	0	24	17	22
1120	1	1	0	24	17	23
1121	1	1	0	24	17	24
1122	1	2	0	24	17	25
1123	1	2	0	24	18	15
1124	1	1	0	24	18	16
1125	1	1	0	24	18	17
1126	1	1	0	24	18	18
1127	1	1	0	24	18	19
1128	1	1	0	24	18	20
1129	1	1	0	24	18	21
1130	1	1	0	24	18	22
1131	1	1	0	24	18	23
1132	1	1	0	24	18	24
1133	1	2	0	24	18	25
1134	1	2	0	24	19	15
1135	1	1	0	24	19	16
1136	1	1	0	24	19	17
1137	1	1	0	24	19	18
1138	1	1	0	24	19	19
1139	1	1	0	24	19	20
1140	1	1	0	24	19	21
1141	1	1	0	24	19	22
1142	1	1	0	24	19	23
1143	1	1	0	24	19	24
1144	1	2	0	24	19	25
1145	1	2	0	24	20	15
1146	1	1	0	24	20	16
1147	1	1	0	24	20	17
1148	1	1	0	24	20	18
1149	1	1	0	24	20	19
1150	1	1	0	24	20	20
1151	1	1	0	24	20	21
1152	1	1	0	24	20	22
1153	1	1	0	24	20	23
1154	1	1	0	24	20	24
1155	1	2	0	24	20	25
1156	1	2	0	24	21	15
1157	1	1	0	24	21	16
1158	1	1	0	24	21	17
1159	1	1	0	24	21	18
1160	1	1	0	24	21	19
1161	1	1	0	24	21	20
1162	1	1	0	24	21	21
1163	1	1	0	24	21	22
1164	1	1	0	24	21	23
1165	1	1	0	24	21	24
1166	1	2	0	24	21	25
1167	1	2	0	24	22	15
1168	1	1	0	24	22	16
1169	1	1	0	24	22	17
1170	1	1	0	24	22	18
1171	1	1	0	24	22	19
1172	1	1	0	24	22	20
1173	1	1	0	24	22	21
1174	1	1	0	24	22	22
1175	1	1	0	24	22	23
1176	1	1	0	24	22	24
1177	1	2	0	24	22	25
1178	1	2	0	24	23	15
1179	1	1	0	24	23	16
1180	1	1	0	24	23	17
1181	1	1	0	24	23	18
1182	1	1	0	24	23	19
1183	1	1	0	24	23	20
1184	1	1	0	24	23	21
1185	1	1	0	24	23	22
1186	1	1	0	24	23	23
1187	1	1	0	24	23	24
1188	1	2	0	24	23	25
1189	1	2	0	24	24	15
1190	1	1	0	24	24	16
1191	1	1	0	24	24	17
1192	1	1	0	24	24	18
1193	1	1	0	24	24	19
1194	1	1	0	24	24	20
1195	1	1	0	24	24	21
1196	1	1	0	24	24	22
1197	1	1	0	24	24	23
1198	1	1	0	24	24	24
1199	1	2	0	24	24	25
1200	1	2	0	24	25	15
1201	1	2	0	24	25	16
1202	1	2	0	24	25	17
1203	1	2	0	24	25	18
1204	1	2	0	24	25	19
1205	1	2	0	24	25	20
1206	1	2	0	24	25	21
1207	1	2	0	24	25	22
1208	1	2	0	24	25	23
1209	1	2	0	24	25	24
1210	1	2	0	24	25	25
1211	1	2	0	25	15	15
1212	1	2	0	25	15	16
1213	1	2	0	25	15	17
1214	1	2	0	25	15	18
1215	1	2	0	25	15	19
1216	1	2	0	25	15	20
1217	1	2	0	25	15	21
1218	1	2	0	25	15	22
1219	1	2	0	25	15	23
1220	1	2	0	25	15	24
1221	1	2	0	25	15	25
1222	1	2	0	25	16	15
1223	1	2	0	25	16	16
1224	1	2	0	25	16	17
1225	1	2	0	25	16	18
1226	1	2	0	25	16	19
1227	1	2	0	25	16	20
1228	1	2	0	25	16	21
1229	1	2	0	25	16	22
1230	1	2	0	25	16	23
1231	1	2	0	25	16	24
1232	1	2	0	25	16	25
1233	1	2	0	25	17	15
1234	1	2	0	25	17	16
1235	1	2	0	25	17	17
1236	1	2	0	25	17	18
1237	1	2	0	25	17	19
1238	1	2	0	25	17	20
1239	1	2	0	25	17	21
1240	1	2	0	25	17	22
1241	1	2	0	25	17	23
1242	1	2	0	25	17	24
1243	1	2	0	25	17	25
1244	1	2	0	25	18	15
1245	1	2	0	25	18	16
1246	1	2	0	25	18	17
1247	1	2	0	25	18	18
1248	1	2	0	25	18	19
1249	1	2	0	25	18	20
1250	1	2	0	25	18	21
1251	1	2	0	25	18	22
1252	1	2	0	25	18	23
1253	1	2	0	25	18	24
1254	1	2	0	25	18	25
1255	1	2	0	25	19	15
1256	1	2	0	25	19	16
1257	1	2	0	25	19	17
1258	1	2	0	25	19	18
1259	1	2	0	25	19	19
1260	1	2	0	25	19	20
1261	1	2	0	25	19	21
1262	1	2	0	25	19	22
1263	1	2	0	25	19	23
1264	1	2	0	25	19	24
1265	1	2	0	25	19	25
1266	1	2	0	25	20	15
1267	1	2	0	25	20	16
1268	1	2	0	25	20	17
1269	1	2	0	25	20	18
1270	1	2	0	25	20	19
1271	1	2	0	25	20	20
1272	1	2	0	25	20	21
1273	1	2	0	25	20	22
1274	1	2	0	25	20	23
1275	1	2	0	25	20	24
1276	1	2	0	25	20	25
1277	1	2	0	25	21	15
1278	1	2	0	25	21	16
1279	1	2	0	25	21	17
1280	1	2	0	25	21	18
1281	1	2	0	25	21	19
1282	1	2	0	25	21	20
1283	1	2	0	25	21	21
1284	1	2	0	25	21	22
1285	1	2	0	25	21	23
1286	1	2	0	25	21	24
1287	1	2	0	25	21	25
1288	1	2	0	25	22	15
1289	1	2	0	25	22	16
1290	1	2	0	25	22	17
1291	1	2	0	25	22	18
1292	1	2	0	25	22	19
1293	1	2	0	25	22	20
1294	1	2	0	25	22	21
1295	1	2	0	25	22	22
1296	1	2	0	25	22	23
1297	1	2	0	25	22	24
1298	1	2	0	25	22	25
1299	1	2	0	25	23	15
1300	1	2	0	25	23	16
1301	1	2	0	25	23	17
1302	1	2	0	25	23	18
1303	1	2	0	25	23	19
1304	1	2	0	25	23	20
1305	1	2	0	25	23	21
1306	1	2	0	25	23	22
1307	1	2	0	25	23	23
1308	1	2	0	25	23	24
1309	1	2	0	25	23	25
1310	1	2	0	25	24	15
1311	1	2	0	25	24	16
1312	1	2	0	25	24	17
1313	1	2	0	25	24	18
1314	1	2	0	25	24	19
1315	1	2	0	25	24	20
1316	1	2	0	25	24	21
1317	1	2	0	25	24	22
1318	1	2	0	25	24	23
1319	1	2	0	25	24	24
1320	1	2	0	25	24	25
1321	1	2	0	25	25	15
1322	1	2	0	25	25	16
1323	1	2	0	25	25	17
1324	1	2	0	25	25	18
1325	1	2	0	25	25	19
1326	1	2	0	25	25	20
1327	1	2	0	25	25	21
1328	1	2	0	25	25	22
1329	1	2	0	25	25	23
1330	1	2	0	25	25	24
1331	1	2	0	25	25	25
