LAMMPS (24 Dec 2020)
OMP_NUM_THREADS environment is not set. Defaulting to 1 thread. (src/comm.cpp:94)
  using 1 OpenMP thread(s) per MPI task
#Read the equilibrated lj fluid and add nanocubes

units           lj
atom_style      full
#atom_modify     map array first cubes
dimension       3
boundary        p p f
pair_style      lj/smooth/linear 2.0

variable        sigma           equal 1.0
variable        epsilon         equal 1.0
read_restart	restart.dat.5000000
Reading restart file ...
  restart file = 24 Dec 2020, LAMMPS = 24 Dec 2020
WARNING: Restart file used different # of processors: 288 vs. 336 (src/read_restart.cpp:697)
  restoring atom style full from restart
  orthogonal box = (0.0000000 0.0000000 0.0000000) to (80.000000 80.000000 160.00000)
  6 by 4 by 14 MPI processor grid
  restoring pair style lj/smooth/linear from restart
  426349 atoms
Finding 1-2 1-3 1-4 neighbors ...
  special bond factors lj:    0        0        0       
  special bond factors coul:  0        0        0       
     0 = max # of 1-2 neighbors
     0 = max # of 1-3 neighbors
     0 = max # of 1-4 neighbors
     1 = max # of special neighbors
  special bonds CPU = 3.012 seconds
  read_restart CPU = 3.468 seconds

group		solvent type 1
353197 atoms in group solvent
group 		hull  type 2
28544 atoms in group hull
group 		dummy type 3
44608 atoms in group dummy

neighbor      0.4 bin
neigh_modify  exclude molecule/intra cubes


pair_modify   shift yes

pair_coeff    1 1 1.0 1.0 #solvent
pair_coeff    2 2 1.0 1.0 1.12 #np
pair_coeff    3 3 0.0 0.0 0.0 #dummy
pair_coeff    2 3 0.0 0.0 0.0 #np dummy
pair_coeff    1 2 ${eps} ${sig} ${nscut} #np solvent
pair_coeff    1 2 1.0 ${sig} ${nscut} 
pair_coeff    1 2 1.0 1.0 ${nscut} 
pair_coeff    1 2 1.0 1.0 4.0 
pair_coeff    1 3 0.0 0.0 0.0 #dummy solvent


comm_modify   mode multi cutoff/multi 1 2.0 cutoff/multi 2 2.0 cutoff/multi 3 6.95

reset_timestep 	0

balance 	1.05 shift z 10 1.05
Balancing ...
Unused restart file global fix info:
  fix style: STORE, fix ID: msd_COMPUTE_STORE
Unused restart file peratom fix info:
  fix style: STORE, fix ID: bin1_COMPUTE_STORE
Neighbor list info ...
  update every 1 steps, delay 10 steps, check yes
  max neighbors/atom: 2000, page size: 100000
  master list distance cutoff = 4.4
  ghost atom cutoff = 6.95
  binsize = 2.2, bins = 37 37 73
  1 neighbor lists, perpetual/occasional/extra = 1 0 0
  (1) pair lj/smooth/linear, perpetual
      attributes: half, newton on
      pair build: half/bin/newton
      stencil: half/bin/3d/newton
      bin: standard
 rebalancing time: 0.073 seconds
  iteration count = 5
  initial/final maximal load/proc = 2727.0000 2031.0000
  initial/final imbalance factor  = 2.1491126 1.6006042
  x cuts: 0.0000000 0.16666667 0.33333333 0.50000000 0.66666667 0.83333333 1.0000000
  y cuts: 0.0000000 0.25000000 0.50000000 0.75000000 1.0000000
  z cuts: 0.0000000 0.046875000 0.095982143 0.13839286 0.18303571 0.21875000 0.26116071 0.30580357 0.34821429 0.38392857 0.43750000 0.46205357 0.51116071 0.60491071 1.0000000

####################### WALLS ###########################

variable       epsilonWall equal 2*${epsilon}
variable       epsilonWall equal 2*1
variable       repulsive   equal   0.7147*${sigma}
variable       repulsive   equal   0.7147*1
variable       full	   equal   3*${sigma}
variable       full	   equal   3*1
#region         lowWall block EDGE EDGE EDGE EDGE EDGE 2

fix            topWall all wall/lj93 zhi EDGE 	       ${epsilonWall} ${sigma} ${repulsive} units box
fix            topWall all wall/lj93 zhi EDGE 	       2 ${sigma} ${repulsive} units box
fix            topWall all wall/lj93 zhi EDGE 	       2 1 ${repulsive} units box
fix            topWall all wall/lj93 zhi EDGE 	       2 1 0.7147 units box
fix            lowSol solvent wall/lj93 zlo EDGE                ${epsilonWall} ${sigma} ${full} units box
fix            lowSol solvent wall/lj93 zlo EDGE                2 ${sigma} ${full} units box
fix            lowSol solvent wall/lj93 zlo EDGE                2 1 ${full} units box
fix            lowSol solvent wall/lj93 zlo EDGE                2 1 3 units box
fix 	       lowCub cubes wall/lj93 zlo EDGE                ${epsilonWall} ${sigma} ${repulsive} units box
fix 	       lowCub cubes wall/lj93 zlo EDGE                2 ${sigma} ${repulsive} units box
fix 	       lowCub cubes wall/lj93 zlo EDGE                2 1 ${repulsive} units box
fix 	       lowCub cubes wall/lj93 zlo EDGE                2 1 0.7147 units box


###################### COMPUTES ##########################

compute        bin1 solvent chunk/atom bin/1d z lower 1.0 units box


######################  FIXES ############################


fix             peclet solvent ave/chunk 100 1 10000 bin1 density/number norm                  none ave one file density.profile

fix              temp solvent ave/chunk 100 1 10000 bin1 temp norm                  none ave one file temp.profile

fix             1 cubes rigid/nve/small molecule
  create bodies CPU = 0.025 seconds
  64 rigid bodies with 73152 atoms
  6.9282032 = max distance from body owner to body atom

fix             2 solvent nve


## Thermostat
region          regthermo block EDGE EDGE EDGE EDGE 0 15
group           thermo dynamic solvent region regthermo every 1000
dynamic group thermo defined
fix             3 thermo langevin ${temp} ${temp} 10 156453
fix             3 thermo langevin 0.6 ${temp} 10 156453
fix             3 thermo langevin 0.6 0.6 10 156453

## Evaporation
region		regevap block EDGE EDGE EDGE EDGE 140 EDGE
fix		4 solvent evaporate ${evap} 1 regevap 156415
fix		4 solvent evaporate 85 1 regevap 156415


#### Load balancing

fix             bal all balance 1000 1.05 shift z 10 1.05

############### Diagnostics and computes ###################

compute          cluster all cluster/atom 1.5
compute          cc1 all chunk/atom c_cluster compress yes
compute          size all property/chunk cc1 count
compute          myChunk all temp/chunk cc1 temp
fix              tempe all ave/time 5000 1 5000 c_myChunk file tmp.out mode scalar
compute          comChunk all com/chunk cc1
fix              com all ave/time 10000 1 10000 c_size c_comChunk[*] file com.xyz mode vector


compute        	com cubes          rigid/local   1 mol x y z
compute        	quat cubes         rigid/local   1 mol quatw quati quatj quatk

compute 	cc2 cubes 	   chunk/atom 	 molecule
compute 	msd cubes 	   msd/chunk 	 cc2

fix 		msd all ave/time  1 1 10000 c_msd[*] file dump.msd ave one mode vector

dump            1 all custom 100000 dump.lammpstrj id mol type x y z c_cluster c_cc1
dump		hulltrj hull custom 100000 hull.lammpstrj id mol type x y z
dump		cubestrj cubes custom 100000 cubes.lammpstrj id mol type x y z

dump            com cubes local 100000 dump.*.xyz c_com[*]
dump	        xyz cubes xyz 100000 cubes.*.xyz
dump            quat cubes      local 100000 dump.*.quat c_quat[*]


dump            2 all image 10000 image.*.png type type zoom 1.5 size 1280 720
dump_modify     2 pad 8
dump		image cubes image 10000 image_cubes.*.png type type zoom 1.5 size 1280 720
dump_modify	image pad 8
dump            3 all movie 5000 movie.avi type type zoom 1.5 size 1280 720
dump		4 cubes movie 5000 movie_cubes.avi type type zoom 1.5 size 1280 720


thermo          10000
thermo_style    custom step temp epair evdwl etotal press pe ke atoms

restart         1000000 restart.dat
timestep        0.005
timer           full
New timer settings: style=full  mode=nosync  timeout=off

run 		30000000
Neighbor list info ...
  update every 1 steps, delay 10 steps, check yes
  max neighbors/atom: 2000, page size: 100000
  master list distance cutoff = 4.4
  ghost atom cutoff = 6.95
  binsize = 2.2, bins = 37 37 73
  2 neighbor lists, perpetual/occasional/extra = 1 1 0
  (1) pair lj/smooth/linear, perpetual
      attributes: half, newton on
      pair build: half/bin/newton
      stencil: half/bin/3d/newton
      bin: standard
  (2) compute cluster/atom, occasional
      attributes: full, newton on
      pair build: full/bin
      stencil: full/bin/3d
      bin: standard
Per MPI rank memory allocation (min/avg/max) = 24.91 | 30.69 | 36.07 Mbytes
Step Temp E_pair E_vdwl TotEng Press PotEng KinEng Atoms 
       0    0.6022542   -2.1842339   -2.1842339   -1.4355836  0.059961447   -2.1842339   0.74865027   426349 
   10000   0.60408556   -2.1871026   -2.1871026   -1.4359696  0.027443277   -2.1871026   0.75113293   426232 
   20000   0.60290482    -2.187713    -2.187713   -1.4378407  0.038726724    -2.187713   0.74987236   426114 
   30000   0.60211383    -2.186285    -2.186285   -1.4371907  0.033137382    -2.186285   0.74909424   425997 
   40000   0.60315472   -2.1903105   -2.1903105   -1.4397134  0.034314872   -2.1903105   0.75059713   425879 
   50000   0.60261216   -2.1911931   -2.1911931   -1.4410634   0.03402658   -2.1911931   0.75012978   425761 
   60000   0.60194199   -2.1910784   -2.1910784   -1.4415768  0.036358386   -2.1910784   0.74950152   425644 
   70000    0.6011018   -2.1891281   -2.1891281   -1.4404651  0.035708136   -2.1891281   0.74866292   425526 
   80000   0.60231287   -2.1916109   -2.1916109   -1.4412315   0.03433183   -2.1916109   0.75037938   425408 
   90000   0.60189589   -2.1917518   -2.1917518   -1.4416856  0.036636904   -2.1917518   0.75006617   425291 
  100000   0.59997893   -2.1895461   -2.1895461   -1.4416613  0.030956479   -2.1895461   0.74788482   425173 
  110000   0.60158873   -2.1917328   -2.1917328   -1.4416331  0.035041333   -2.1917328   0.75009965   425055 
  120000   0.60152019    -2.193119    -2.193119   -1.4428983  0.039244649    -2.193119    0.7502207   424938 
  130000   0.60147182   -2.1942494   -2.1942494   -1.4438807  0.031300104   -2.1942494   0.75036873   424820 
  140000   0.59989821   -2.1924842   -2.1924842   -1.4438707  0.035417099   -2.1924842   0.74861351   424702 
  150000   0.59895844   -2.1926013   -2.1926013   -1.4449546  0.031216133   -2.1926013   0.74764674   424585 
  160000   0.59983426   -2.1943043   -2.1943043   -1.4453562  0.038004156   -2.1943043   0.74894812   424467 
  170000    0.6003716   -2.1949757   -2.1949757   -1.4451482  0.040486885   -2.1949757   0.74982749   424349 
  180000   0.59951723   -2.1948302   -2.1948302   -1.4458633  0.030186094   -2.1948302   0.74896693   424232 
  190000   0.59786868   -2.1926601   -2.1926601   -1.4455449   0.04106855   -2.1926601   0.74711524   424114 
  200000   0.60110604   -2.1963834   -2.1963834   -1.4450153  0.040320544   -2.1963834   0.75136802   423997 
  210000   0.59908173   -2.1973846   -2.1973846   -1.4483384  0.036161925   -2.1973846   0.74904615   423879 
  220000   0.59757626   -2.1938187   -2.1938187   -1.4464468  0.040190141   -2.1938187   0.74737187   423761 
  230000   0.59755573   -2.1926795   -2.1926795   -1.4451269  0.039095217   -2.1926795    0.7475526   423644 
  240000    0.5975138   -2.1969561   -2.1969561   -1.4492477  0.034837748   -2.1969561    0.7477084   423526 
  250000   0.59815178   -2.1988104   -2.1988104   -1.4500951  0.036044181   -2.1988104   0.74871535   423408 
  260000   0.59912388   -2.1997534   -2.1997534    -1.449614   0.03298387   -2.1997534   0.75013943   423291 
  270000   0.59656501   -2.1969076   -2.1969076   -1.4497637  0.032333226   -2.1969076   0.74714384   423173 
  280000   0.59796075   -2.1991626   -2.1991626   -1.4500619  0.032184324   -2.1991626   0.74910077   423055 
  290000   0.59746546   -2.1978887   -2.1978887   -1.4492013   0.04060963   -2.1978887   0.74868735   422938 
  300000   0.59733927   -2.1973724   -2.1973724   -1.4486343  0.039727213   -2.1973724   0.74873811   422820 
  310000   0.59725284   -2.1989739   -2.1989739   -1.4501351  0.036108896   -2.1989739   0.74883876   422702 
  320000   0.59564815   -2.1989122   -2.1989122   -1.4518786  0.029813207   -2.1989122   0.74703357   422585 
  330000   0.59697834   -2.2033112   -2.2033112   -1.4544002  0.033127905   -2.2033112   0.74891095   422467 
  340000   0.59646215   -2.2037749   -2.2037749   -1.4553025  0.043632824   -2.2037749   0.74847245   422349 
  350000   0.59425113   -2.2015045   -2.2015045   -1.4555999  0.040658585   -2.2015045   0.74590458   422232 
  360000   0.59457275    -2.199703    -2.199703   -1.4531861  0.032353819    -2.199703    0.7465169   422114 
  370000   0.59515649   -2.2008935   -2.2008935   -1.4534365  0.034448233   -2.2008935   0.74745699   421997 
  380000   0.59653734   -2.2033694   -2.2033694   -1.4539687  0.034331525   -2.2033694   0.74940075   421879 
  390000   0.59548572   -2.2020965   -2.2020965   -1.4538075  0.034109831   -2.2020965   0.74828895   421761 
  400000   0.59412026   -2.2000199   -2.2000199   -1.4532396  0.029056959   -2.2000199   0.74678028   421644 
  410000   0.59454873   -2.2017569   -2.2017569   -1.4542288  0.034151585   -2.2017569   0.74752804   421526 
  420000   0.59440139   -2.2028822   -2.2028822   -1.4553301  0.033743662   -2.2028822   0.74755205   421408 
  430000   0.59378483   -2.2034989   -2.2034989   -1.4565149  0.031336648   -2.2034989   0.74698403   421291 
  440000   0.59303132    -2.204347    -2.204347   -1.4581019  0.027699182    -2.204347   0.74624512   421173 
  450000    0.5921858   -2.2048034   -2.2048034   -1.4594134  0.032510291   -2.2048034   0.74538999   421055 
  460000   0.59409327   -2.2055828   -2.2055828    -1.457584  0.038223173   -2.2055828    0.7479988   420938 
  470000   0.59380372   -2.2050918   -2.2050918   -1.4572479  0.038435736   -2.2050918   0.74784387   420820 
  480000    0.5926968   -2.2037613   -2.2037613   -1.4571022  0.029073909   -2.2037613   0.74665917   420702 
  490000   0.59181167   -2.2025788   -2.2025788   -1.4568273  0.035940243   -2.2025788   0.74575152   420585 
  500000   0.59228106   -2.2035992   -2.2035992   -1.4570467    0.0269084   -2.2035992   0.74655246   420467 
  510000   0.59127015   -2.2043268   -2.2043268   -1.4588394  0.035387052   -2.2043268   0.74548745   420349 
  520000   0.59089784   -2.2053057   -2.2053057   -1.4600802  0.028547929   -2.2053057   0.74522546   420232 
  530000   0.59153178   -2.2081214   -2.2081214   -1.4618869  0.033255832   -2.2081214    0.7462345   420114 
  540000     0.592211   -2.2092665   -2.2092665    -1.461967  0.031042312   -2.2092665   0.74729948   419997 
  550000   0.59123031   -2.2082634   -2.2082634   -1.4619917  0.037352561   -2.2082634   0.74627164   419879 
  560000   0.58897562   -2.2056298   -2.2056298   -1.4619952  0.031791487   -2.2056298   0.74363466   419761 
  570000   0.59167769   -2.2088401   -2.2088401   -1.4615855  0.030754197   -2.2088401   0.74725456   419644 
  580000   0.58980806    -2.209444    -2.209444   -1.4643411  0.031949105    -2.209444   0.74510284   419526 
  590000   0.58990736   -2.2108916   -2.2108916   -1.4654537  0.030004334   -2.2108916   0.74543796   419408 
  600000   0.59072811   -2.2108316   -2.2108316   -1.4641482  0.033456939   -2.2108316    0.7466834   419291 
  610000   0.58825119   -2.2106457   -2.2106457   -1.4668838    0.0285486   -2.2106457   0.74376187   419173 
  620000   0.58710799   -2.2081777   -2.2081777   -1.4656522  0.041382971   -2.2081777   0.74252548   419055 
  630000   0.58840977   -2.2101675   -2.2101675   -1.4657878  0.039147177   -2.2101675    0.7443797   418938 
  640000   0.58852892   -2.2108515   -2.2108515   -1.4661113  0.037593417   -2.2108515    0.7447402   418820 
  650000   0.58758018   -2.2104802   -2.2104802    -1.466731  0.033799332   -2.2104802   0.74374918   418702 
  660000   0.58815538   -2.2109521   -2.2109521   -1.4662668  0.035756982   -2.2109521   0.74468535   418585 
  670000   0.58755743      -2.2131      -2.2131    -1.468962  0.030615481      -2.2131   0.74413804   418467 
  680000   0.58821731   -2.2145602   -2.2145602   -1.4693763  0.033092575   -2.2145602    0.7451839   418349 
  690000   0.58870665   -2.2145209   -2.2145209   -1.4685084  0.039005025   -2.2145209   0.74601246   418232 
  700000   0.58750886    -2.215083    -2.215083   -1.4703783  0.031212019    -2.215083   0.74470472   418114 
  710000   0.58607908   -2.2152821   -2.2152821   -1.4721817  0.037379614   -2.2152821   0.74310033   417997 
  720000   0.58525075   -2.2132583   -2.2132583   -1.4709987  0.028656738   -2.2132583   0.74225962   417879 
  730000   0.58524637   -2.2134494   -2.2134494   -1.4709857  0.028468735   -2.2134494   0.74246371   417761 
  740000   0.58512441   -2.2143011   -2.2143011   -1.4717841  0.035502082   -2.2143011   0.74251694   417644 
  750000   0.58541084   -2.2143334   -2.2143334    -1.471243  0.026700159   -2.2143334   0.74309037   417526 
  760000   0.58652061    -2.214709    -2.214709   -1.4699995  0.028969425    -2.214709   0.74470952   417408 
  770000   0.58519888   -2.2133191   -2.2133191   -1.4700795  0.031086036   -2.2133191   0.74323964   417291 
  780000   0.58402073   -2.2131892   -2.2131892   -1.4712361  0.032096537   -2.2131892   0.74195313   417173 
  790000   0.58534364   -2.2160986   -2.2160986   -1.4722544  0.028112002   -2.2160986   0.74384418   417055 
  800000   0.58213213   -2.2130431   -2.2130431   -1.4730725  0.027230196   -2.2130431   0.73997064   416938 
  810000   0.58439512    -2.215167    -2.215167   -1.4721095  0.037348736    -2.215167   0.74305751   416820 
  820000   0.58234682   -2.2147985   -2.2147985   -1.4741357  0.027307359   -2.2147985   0.74066278   416702 
  830000   0.58472244   -2.2160348   -2.2160348   -1.4721417  0.035326313   -2.2160348   0.74389309   416585 
  840000   0.58439371   -2.2171183   -2.2171183   -1.4734328  0.033937731   -2.2171183   0.74368554   416467 
  850000   0.58317274   -2.2167568   -2.2167568   -1.4744147  0.029087463   -2.2167568   0.74234209   416349 
  860000   0.58327681   -2.2168527   -2.2168527   -1.4741695     0.036923   -2.2168527   0.74268328   416232 
  870000   0.58217853   -2.2148122   -2.2148122   -1.4733171  0.026492535   -2.2148122   0.74149505   416114 
  880000   0.58203645   -2.2168221   -2.2168221   -1.4752995  0.027756766   -2.2168221   0.74152258   415997 
  890000   0.58311039    -2.219792    -2.219792   -1.4766904  0.034670966    -2.219792   0.74310159   415879 
  900000   0.58123875   -2.2172739   -2.2172739   -1.4763473  0.029175635   -2.2172739   0.74092663   415761 
  910000   0.58136956   -2.2166236   -2.2166236   -1.4753216  0.037304317   -2.2166236     0.741302   415644 
  920000   0.58091431   -2.2182382   -2.2182382   -1.4773063  0.029791598   -2.2182382   0.74093186   415526 
  930000   0.58116978   -2.2197474   -2.2197474   -1.4782792  0.028526119   -2.2197474   0.74146826   415408 
  940000   0.58171608   -2.2214433   -2.2214433    -1.479069   0.03094295   -2.2214433   0.74237433   415291 
  950000   0.58064461   -2.2193208   -2.2193208   -1.4781032  0.028979322   -2.2193208   0.74121755   415173 
  960000   0.58037661   -2.2185918   -2.2185918   -1.4775058   0.02728945   -2.2185918   0.74108607   415055 
  970000    0.5798768   -2.2187172   -2.2187172   -1.4780605  0.027279311   -2.2187172   0.74065665   414938 
  980000   0.58083604   -2.2207766   -2.2207766   -1.4786837  0.026157009   -2.2207766   0.74209288   414820 
  990000   0.57947761   -2.2190941   -2.2190941   -1.4785261  0.035953221   -2.2190941   0.74056797   414702 
 1000000   0.58020084   -2.2196854   -2.2196854   -1.4779838  0.026228633   -2.2196854   0.74170152   414585 
 1010000   0.57957572   -2.2192831   -2.2192831   -1.4781698  0.029603175   -2.2192831   0.74111332   414467 
 1020000   0.58019257   -2.2195181   -2.2195181   -1.4774048  0.032932849   -2.2195181   0.74211339   414349 
 1030000   0.57879822   -2.2205089   -2.2205089   -1.4799699  0.024931137   -2.2205089   0.74053901   414232 
 1040000   0.57925978   -2.2223746   -2.2223746   -1.4810338  0.030459144   -2.2223746   0.74134073   414114 
 1050000   0.57900561   -2.2217319   -2.2217319    -1.480507  0.027435246   -2.2217319   0.74122486   413997 
 1060000   0.57885896   -2.2212177   -2.2212177   -1.4799693  0.030193675   -2.2212177    0.7412484   413879 
 1070000   0.57819241   -2.2203312   -2.2203312   -1.4797252  0.029905926   -2.2203312     0.740606   413761 
 1080000   0.57836368   -2.2214053   -2.2214053   -1.4803704   0.03064929   -2.2214053   0.74103493   413644 
 1090000   0.57777843   -2.2214692   -2.2214692   -1.4809729  0.029437243   -2.2214692   0.74049632   413526 
 1100000   0.57736486   -2.2218821   -2.2218821   -1.4817046  0.030442989   -2.2218821   0.74017748   413408 
 1110000   0.57651798   -2.2196501   -2.2196501   -1.4803491  0.025037034   -2.2196501   0.73930102   413291 
 1120000   0.57804789   -2.2228509   -2.2228509   -1.4813763  0.033420929   -2.2228509    0.7414746   413173 
 1130000   0.57698176   -2.2249625   -2.2249625    -1.484644  0.029704455   -2.2249625   0.74031849   413055 
 1140000   0.57515174   -2.2237873   -2.2237873   -1.4856078  0.033906733   -2.2237873   0.73817951   412938 
 1150000   0.57648828   -2.2252622   -2.2252622   -1.4851558  0.030189421   -2.2252622   0.74010638   412820 
 1160000   0.57529078   -2.2232864   -2.2232864   -1.4845062  0.032391631   -2.2232864   0.73878019   412702 
 1170000   0.57584993   -2.2244214   -2.2244214   -1.4847135    0.0313624   -2.2244214   0.73970794   412585 
 1180000    0.5750481    -2.223645    -2.223645   -1.4847557  0.027338528    -2.223645   0.73888927   412467 
 1190000   0.57487243   -2.2240452   -2.2240452   -1.4851703   0.03017585   -2.2240452   0.73887493   412349 
 1200000   0.57532332    -2.223756    -2.223756   -1.4840917  0.028837927    -2.223756   0.73966433   412232 
 1210000   0.57473631   -2.2247688   -2.2247688   -1.4856476  0.032675623   -2.2247688   0.73912121   412114 
 1220000   0.57477877   -2.2250276   -2.2250276   -1.4856418  0.034564277   -2.2250276   0.73938572   411997 
 1230000   0.57333517   -2.2251085   -2.2251085   -1.4873685  0.031582347   -2.2251085      0.73774   411879 
 1240000   0.57304083   -2.2273187   -2.2273187   -1.4897461  0.029292504   -2.2273187   0.73757257   411761 
 1250000   0.57240013   -2.2272222   -2.2272222   -1.4902649  0.037262735   -2.2272222   0.73695731   411644 
 1260000   0.57261242   -2.2274555   -2.2274555   -1.4900135  0.027105811   -2.2274555   0.73744202   411526 
 1270000   0.57397532   -2.2278404   -2.2278404   -1.4884311  0.026759997   -2.2278404   0.73940926   411408 
 1280000   0.57236017   -2.2251406   -2.2251406   -1.4876023  0.033897413   -2.2251406   0.73753833   411291 
 1290000   0.57196967   -2.2234071   -2.2234071   -1.4861605  0.029167637   -2.2234071   0.73724665   411173 
 1300000   0.57201587   -2.2234898   -2.2234898   -1.4859719  0.025111107   -2.2234898   0.73751786   411055 
 1310000   0.57139076   -2.2245752   -2.2245752   -1.4876536  0.030738834   -2.2245752   0.73692163   410938 
 1320000   0.57161113    -2.225968    -2.225968   -1.4885504  0.023250831    -2.225968    0.7374176   410820 
 1330000   0.57237912   -2.2284877   -2.2284877   -1.4898672   0.03507009   -2.2284877   0.73862051   410702 
 1340000   0.57119389   -2.2254092   -2.2254092   -1.4881082  0.025583802   -2.2254092   0.73730108   410585 
 1350000   0.57217528    -2.227236    -2.227236   -1.4884558  0.032264268    -2.227236   0.73878019   410467 
 1360000   0.57132644   -2.2286357   -2.2286357   -1.4907393  0.031674956   -2.2286357   0.73789631   410349 
 1370000   0.57156151   -2.2283358   -2.2283358   -1.4899253  0.025627228   -2.2283358   0.73841045   410232 
 1380000   0.56916655   -2.2261359   -2.2261359    -1.490608  0.028278515   -2.2261359   0.73552794   410114 
 1390000    0.5689128   -2.2263604   -2.2263604   -1.4909506  0.023892304   -2.2263604   0.73540981   409997 
 1400000   0.56945456   -2.2271108   -2.2271108   -1.4907888   0.03274952   -2.2271108   0.73632205   409879 
 1410000   0.56993049   -2.2287332   -2.2287332   -1.4915835  0.033232447   -2.2287332   0.73714965   409761 
 1420000   0.57059553   -2.2301672   -2.2301672   -1.4919466  0.027097809   -2.2301672    0.7382206   409644 
 1430000   0.56928281   -2.2285502   -2.2285502   -1.4918158  0.033153693   -2.2285502   0.73673447   409526 
 1440000   0.56906242   -2.2294412   -2.2294412   -1.4927797  0.026129038   -2.2294412   0.73666151   409408 
 1450000   0.56912576    -2.229477    -2.229477   -1.4925229  0.031363594    -2.229477   0.73695411   409291 
 1460000   0.56933728   -2.2283234   -2.2283234   -1.4908828  0.022473441   -2.2283234   0.73744062   409173 
 1470000   0.56881755   -2.2282302   -2.2282302   -1.4912503  0.025380554   -2.2282302   0.73697996   409055 
 1480000   0.56808552   -2.2290515   -2.2290515   -1.4928094  0.028195591   -2.2290515    0.7362421   408938 
 1490000   0.56924353   -2.2312452   -2.2312452   -1.4932893  0.028983242   -2.2312452   0.73795583   408820 
 1500000   0.56765617   -2.2293747   -2.2293747   -1.4932643  0.023373448   -2.2293747   0.73611047   408702 
 1510000   0.56733358    -2.228551    -2.228551   -1.4926482  0.030658232    -2.228551   0.73590282   408585 
 1520000   0.56614566   -2.2263429   -2.2263429   -1.4917688  0.031624905   -2.2263429   0.73457408   408467 
 1530000   0.56716396   -2.2284132   -2.2284132   -1.4923052  0.026304387   -2.2284132   0.73610799   408349 
 1540000   0.56791298   -2.2308592   -2.2308592   -1.4935678  0.030397215   -2.2308592   0.73729137   408232 
 1550000   0.56622374   -2.2306003   -2.2306003   -1.4952894  0.028768865   -2.2306003   0.73531086   408114 
 1560000   0.56577438   -2.2314271   -2.2314271   -1.4964891  0.030763278   -2.2314271     0.734938   407997 
 1570000   0.56467109   -2.2320034   -2.2320034   -1.4982864  0.029958945   -2.2320034   0.73371704   407879 
 1580000   0.56594531   -2.2333894   -2.2333894   -1.4978039  0.023790022   -2.2333894   0.73558552   407761 
 1590000   0.56573786   -2.2303481   -2.2303481   -1.4948212  0.022969845   -2.2303481   0.73552694   407644 
 1600000   0.56478205    -2.229577    -2.229577   -1.4950801  0.032089287    -2.229577   0.73449689   407526 
 1610000   0.56497485   -2.2315863   -2.2315863   -1.4966259  0.025657386   -2.2315863   0.73496044   407408 
 1620000   0.56514816   -2.2318844   -2.2318844   -1.4964873  0.035403505   -2.2318844   0.73539709   407291 
 1630000   0.56520096   -2.2346277   -2.2346277   -1.4989488  0.032940239   -2.2346277   0.73567893   407173 
 1640000   0.56555438   -2.2328118   -2.2328118   -1.4964595  0.033104973   -2.2328118   0.73635234   407055 
 1650000     0.564455   -2.2303048   -2.2303048   -1.4951725  0.030606039   -2.2303048   0.73513225   406938 
 1660000    0.5654274   -2.2310198   -2.2310198   -1.4944076  0.030230811   -2.2310198   0.73661227   406820 
 1670000   0.56468076   -2.2327695   -2.2327695   -1.4969165  0.022294854   -2.2327695   0.73585302   406702 
 1680000   0.56387752   -2.2331872   -2.2331872   -1.4981695  0.040556586   -2.2331872   0.73501775   406585 
 1690000   0.56244113   -2.2321821   -2.2321821   -1.4988239  0.027429203   -2.2321821   0.73335824   406467 
 1700000   0.56324777   -2.2333827   -2.2333827   -1.4987594  0.024074065   -2.2333827   0.73462328   406349 
 1710000   0.56139513   -2.2306453   -2.2306453   -1.4982275  0.026915885   -2.2306453   0.73241783   406232 
 1720000   0.56259017   -2.2346151   -2.2346151   -1.5004249  0.027812612   -2.2346151   0.73419019   406114 
 1730000   0.56126273   -2.2338675   -2.2338675   -1.5011986   0.03146406   -2.2338675   0.73266893   405997 
 1740000   0.56258988   -2.2350657   -2.2350657   -1.5004508  0.032146958   -2.2350657    0.7346149   405879 
 1750000   0.56137721   -2.2344696   -2.2344696    -1.501225  0.030147683   -2.2344696    0.7332446   405761 
 1760000   0.56299108   -2.2343567   -2.2343567    -1.498792  0.027402832   -2.2343567   0.73556466   405644 
 1770000    0.5613813   -2.2314606   -2.2314606   -1.4977857  0.031064918   -2.2314606   0.73367485   405526 
 1780000   0.56144039   -2.2309451   -2.2309451   -1.4969795  0.029782981   -2.2309451   0.73396565   405408 
 1790000   0.56153866   -2.2323297   -2.2323297   -1.4980237  0.028682011   -2.2323297   0.73430604   405291 
 1800000    0.5598873   -2.2329318   -2.2329318    -1.500572  0.034168621   -2.2329318   0.73235984   405173 
 1810000   0.55946085   -2.2333447   -2.2333447   -1.5013295  0.029354151   -2.2333447   0.73201521   405055 
 1820000   0.56004956     -2.23466     -2.23466   -1.5016627  0.034310386     -2.23466   0.73299722   404938 
 1830000   0.56066957   -2.2348421   -2.2348421   -1.5008195   0.03165348   -2.2348421   0.73402259   404820 
 1840000   0.55969623   -2.2325362   -2.2325362   -1.4995743  0.031400503   -2.2325362   0.73296195   404702 
 1850000   0.55964448   -2.2326474   -2.2326474   -1.4995413  0.021138329   -2.2326474   0.73310611   404585 
 1860000   0.55931956    -2.234396    -2.234396   -1.5015018  0.031837226    -2.234396   0.73289424   404467 
 1870000   0.56054301   -2.2362705   -2.2362705   -1.5015588  0.030753194   -2.2362705   0.73471171   404349 
 1880000   0.55859968   -2.2322856   -2.2322856   -1.4999091  0.028866676   -2.2322856   0.73237648   404232 
 1890000   0.55780553   -2.2316915   -2.2316915   -1.5001427  0.027310153   -2.2316915   0.73154882   404114 
 1900000   0.55908872   -2.2333813   -2.2333813   -1.4999372  0.035292523   -2.2333813   0.73344404   403997 
 1910000   0.55983436    -2.234021    -2.234021   -1.4993842  0.030986804    -2.234021   0.73463679   403879 
 1920000   0.55778629    -2.232589    -2.232589   -1.5004259  0.025160715    -2.232589   0.73216315   403761 
 1930000     0.557303    -2.232361    -2.232361   -1.5006202  0.033129523    -2.232361   0.73174081   403644 
 1940000    0.5567025   -2.2333758   -2.2333758   -1.5022097   0.03234789   -2.2333758    0.7311661   403526 
 1950000   0.55718611   -2.2336618   -2.2336618   -1.5016465  0.026183987   -2.2336618   0.73201533   403408 
 1960000   0.55601507   -2.2327803   -2.2327803   -1.5020915   0.02267123   -2.2327803   0.73068876   403291 
 1970000   0.55759669   -2.2359358   -2.2359358   -1.5029541  0.034243975   -2.2359358   0.73298172   403173 
 1980000   0.55775063   -2.2355583   -2.2355583   -1.5021595  0.031155487   -2.2355583   0.73339873   403055 
 1990000    0.5565124   -2.2339829   -2.2339829   -1.5019998  0.022487205   -2.2339829   0.73198304   402938 
 2000000   0.55649237   -2.2339487   -2.2339487   -1.5017776  0.035022409   -2.2339487    0.7321711   402820 
 2010000    0.5565743   -2.2341648   -2.2341648   -1.5016713  0.034330534   -2.2341648   0.73249348   402702 
 2020000   0.55474785    -2.234781    -2.234781   -1.5044791  0.029040628    -2.234781   0.73030191   402585 
 2030000     0.555931   -2.2365315   -2.2365315   -1.5044574  0.031015596   -2.2365315   0.73207406   402467 
 2040000   0.55512568   -2.2358987   -2.2358987   -1.5046707  0.025974154   -2.2358987   0.73122796   402349 
 2050000   0.55425475   -2.2360887   -2.2360887   -1.5057956   0.03310602   -2.2360887   0.73029311   402232 
 2060000   0.55518125   -2.2369758   -2.2369758   -1.5052473  0.027638071   -2.2369758   0.73172854   402114 
 2070000   0.55363378   -2.2324534   -2.2324534   -1.5025521  0.022991008   -2.2324534   0.72990135   401997 
 2080000   0.55448748   -2.2341207   -2.2341207   -1.5028793   0.03224496   -2.2341207   0.73124149   401879 
 2090000   0.55410917   -2.2352148   -2.2352148   -1.5042576  0.033064033   -2.2352148   0.73095722   401761 
 2100000   0.55530569   -2.2375494   -2.2375494   -1.5048004  0.020518443   -2.2375494     0.732749   401644 
 2110000     0.553657   -2.2355948   -2.2355948   -1.5048067  0.024503783   -2.2355948   0.73078819   401526 
 2120000   0.55379677   -2.2339857   -2.2339857   -1.5027982  0.027634085   -2.2339857   0.73118756   401408 
 2130000   0.55260813   -2.2341302   -2.2341302   -1.5042994   0.02183688   -2.2341302    0.7298309   401291 
 2140000   0.55297451   -2.2353268   -2.2353268   -1.5047972  0.031316618   -2.2353268   0.73052959   401173 
 2150000   0.55273381   -2.2362643   -2.2362643   -1.5058378  0.032524435   -2.2362643   0.73042646   401055 
 2160000   0.55258301   -2.2358772   -2.2358772   -1.5054369  0.027863884   -2.2358772   0.73044026   400938 
 2170000   0.55121756   -2.2334794   -2.2334794   -1.5046296  0.034092499   -2.2334794   0.72884983   400820 
 2180000   0.55249497   -2.2358114   -2.2358114   -1.5050573  0.030476412   -2.2358114   0.73075403   400702 
 2190000    0.5522817   -2.2347303   -2.2347303    -1.504045  0.025085458   -2.2347303    0.7306853   400585 
 2200000   0.55050278    -2.233858    -2.233858   -1.5053116  0.025662659    -2.233858   0.72854634   400467 
 2210000   0.55159769   -2.2368569   -2.2368569   -1.5066464  0.032777887   -2.2368569   0.73021053   400349 
 2220000   0.55049258   -2.2362622   -2.2362622   -1.5073016  0.028444556   -2.2362622   0.72896061   400232 
 2230000   0.54974843   -2.2358838   -2.2358838   -1.5076939  0.032641512   -2.2358838    0.7281899   400114 
 2240000   0.55030064   -2.2375805   -2.2375805    -1.508446  0.036287171   -2.2375805   0.72913456   399997 
 2250000   0.55081785   -2.2378652   -2.2378652     -1.50783  0.025619545   -2.2378652    0.7300352   399879 
 2260000   0.55012408   -2.2359489   -2.2359489    -1.506618   0.03482165   -2.2359489   0.72933092   399761 
 2270000   0.54892239   -2.2355889   -2.2355889   -1.5076381  0.021642771   -2.2355889   0.72795084   399644 
 2280000   0.54962776   -2.2371794   -2.2371794   -1.5080778  0.026705715   -2.2371794   0.72910153   399526 
 2290000   0.54926638   -2.2374122   -2.2374122   -1.5085748  0.025853616   -2.2374122    0.7288374   399408 
 2300000   0.54957075   -2.2368312   -2.2368312   -1.5073763  0.027670442   -2.2368312   0.72945496   399291 
 2310000   0.54923154   -2.2369777   -2.2369777   -1.5077574   0.02820034   -2.2369777   0.72922024   399173 
 2320000   0.54784812   -2.2354339   -2.2354339   -1.5078353  0.031750433   -2.2354339   0.72759854   399055 
 2330000    0.5474353    -2.234598    -2.234598   -1.5073345  0.030912272    -2.234598   0.72726349   398938 
 2340000   0.54801704    -2.236407    -2.236407   -1.5081553  0.034270956    -2.236407   0.72825174   398820 
 2350000   0.54806145   -2.2373493   -2.2373493    -1.508823  0.026844891   -2.2373493   0.72852631   398702 
 2360000   0.54900308   -2.2387719   -2.2387719   -1.5087797  0.031838082   -2.2387719   0.72999221   398585 
 2370000   0.54764637   -2.2355249   -2.2355249   -1.5071211  0.031685214   -2.2355249   0.72840388   398467 
 2380000   0.54754654   -2.2347133   -2.2347133   -1.5062265  0.024566744   -2.2347133   0.72848683   398349 
 2390000   0.54737371    -2.235881    -2.235881   -1.5074102  0.023179496    -2.235881   0.72847085   398232 
 2400000   0.54792697   -2.2386234   -2.2386234   -1.5092001  0.028222794   -2.2386234   0.72942329   398114 
 2410000   0.54867671   -2.2374836   -2.2374836   -1.5068475  0.025433141   -2.2374836    0.7306361   397997 
 2420000   0.54590094   -2.2339596   -2.2339596   -1.5068042  0.029974121   -2.2339596   0.72715538   397879 
 2430000   0.54604966    -2.235374    -2.235374   -1.5078047  0.024694696    -2.235374   0.72756926   397761 
 2440000   0.54590783   -2.2355456   -2.2355456   -1.5079513  0.030124271   -2.2355456    0.7275943   397644 
 2450000   0.54646679   -2.2375788   -2.2375788   -1.5090233  0.026818968   -2.2375788   0.72855549   397526 
 2460000   0.54483391   -2.2352365   -2.2352365   -1.5086423  0.025668043   -2.2352365    0.7265942   397408 
 2470000   0.54681808   -2.2381476   -2.2381476   -1.5086926  0.030864473   -2.2381476   0.72945505   397291 
 2480000   0.54581233   -2.2368371   -2.2368371   -1.5085074  0.024008835   -2.2368371    0.7283297   397173 
 2490000   0.54558745   -2.2354513   -2.2354513   -1.5072053  0.019146272   -2.2354513   0.72824599   397055 
 2500000    0.5453107   -2.2370071   -2.2370071   -1.5089159  0.034913617   -2.2370071   0.72809113   396938 
 2510000    0.5457401   -2.2393104   -2.2393104   -1.5104292  0.029756128   -2.2393104   0.72888114   396820 
 2520000   0.54452018   -2.2377537   -2.2377537   -1.5102855  0.028387726   -2.2377537   0.72746816   396702 
 2530000   0.54455221   -2.2371307   -2.2371307   -1.5094051  0.030104496   -2.2371307   0.72772558   396585 
 2540000   0.54422748   -2.2360093   -2.2360093   -1.5085013  0.028954005   -2.2360093   0.72750808   396467 
 2550000   0.54458377   -2.2379213   -2.2379213   -1.5097202  0.024954403   -2.2379213   0.72820109   396349 
 2560000   0.54383526   -2.2387262   -2.2387262   -1.5113113  0.026322284   -2.2387262   0.72741494   396232 
 2570000    0.5423395   -2.2359707   -2.2359707   -1.5103403  0.026478842   -2.2359707   0.72563035   396114 
 2580000   0.54309355   -2.2347307   -2.2347307   -1.5078768  0.025510552   -2.2347307   0.72685394   395997 
 2590000   0.54399308   -2.2364591   -2.2364591   -1.5081843  0.029549052   -2.2364591   0.72827485   395879 
 2600000   0.54287555   -2.2353762   -2.2353762   -1.5083808  0.024883258   -2.2353762   0.72699543   395761 
 2610000   0.54374499   -2.2349574   -2.2349574   -1.5065824  0.023702021   -2.2349574   0.72837509   395644 
 2620000   0.54216655   -2.2352158   -2.2352158   -1.5087384  0.023923366   -2.2352158   0.72647735   395526 
 2630000   0.54368594   -2.2369283   -2.2369283   -1.5081976  0.028534279   -2.2369283   0.72873067   395408 
 2640000   0.54104278   -2.2350993   -2.2350993   -1.5096967  0.033915961   -2.2350993   0.72540255   395291 
 2650000   0.54206572   -2.2342319   -2.2342319   -1.5072408  0.023087488   -2.2342319   0.72699107   395173 
 2660000   0.54198242   -2.2355562   -2.2355562   -1.5084597  0.027819772   -2.2355562   0.72709647   395055 
 2670000   0.54242952   -2.2379309   -2.2379309    -1.510019  0.030884638   -2.2379309   0.72791185   394938 
 2680000   0.54135874   -2.2364831   -2.2364831    -1.509791  0.035004416   -2.2364831   0.72669204   394820 
 2690000   0.54153913   -2.2348707   -2.2348707   -1.5077192  0.023094996   -2.2348707   0.72715152   394702 
 2700000   0.54017593     -2.23483     -2.23483   -1.5092939  0.024297269     -2.23483   0.72553614   394585 
 2710000    0.5404005   -2.2341801   -2.2341801   -1.5081252  0.030404591   -2.2341801    0.7260549   394467 
 2720000   0.53999358   -2.2325668   -2.2325668   -1.5068415  0.023343823   -2.2325668   0.72572527   394349 
 2730000   0.54001603   -2.2326768   -2.2326768    -1.506706  0.030490416   -2.2326768   0.72597083   394232 
 2740000   0.53980759   -2.2337313   -2.2337313   -1.5078234  0.028068617   -2.2337313    0.7259079   394114 
 2750000   0.54036507    -2.235309    -2.235309   -1.5084356  0.027833142    -2.235309   0.72687336   393997 
 2760000   0.54004632   -2.2368031   -2.2368031   -1.5101409  0.024347777   -2.2368031   0.72666222   393879 
 2770000   0.53934671   -2.2360284   -2.2360284   -1.5100901  0.023516378   -2.2360284   0.72593833   393761 
 2780000   0.53871114   -2.2350785   -2.2350785   -1.5097801  0.028270426   -2.2350785   0.72529839   393644 
 2790000   0.53749745   -2.2333584   -2.2333584   -1.5094771  0.026969288   -2.2333584   0.72388133   393526 
 2800000   0.53827332   -2.2366403   -2.2366403   -1.5114967  0.022877692   -2.2366403   0.72514368   393408 
 2810000   0.53743365   -2.2363882   -2.2363882   -1.5121603  0.030506018   -2.2363882   0.72422789   393291 
 2820000    0.5380089    -2.235307    -2.235307   -1.5100864  0.023324472    -2.235307   0.72522067   393173 
 2830000   0.53785226   -2.2344723   -2.2344723   -1.5092451  0.034570209   -2.2344723   0.72522718   393055 
 2840000   0.53784121   -2.2357859   -2.2357859   -1.5103577  0.025819441   -2.2357859   0.72542822   392938 
 2850000   0.53790171   -2.2350345   -2.2350345   -1.5093067  0.025853704   -2.2350345   0.72572775   392820 
 2860000   0.53758539   -2.2342131   -2.2342131   -1.5086942  0.023046976   -2.2342131   0.72551892   392702 
 2870000   0.53809211    -2.235056    -2.235056   -1.5086367  0.027436319    -2.235056   0.72641921   392585 
 2880000   0.53676957   -2.2345302   -2.2345302   -1.5096786  0.031282731   -2.2345302   0.72485166   392467 
 2890000   0.53580092   -2.2344227   -2.2344227   -1.5106615  0.020007996   -2.2344227   0.72376121   392349 
 2900000   0.53559007   -2.2329394   -2.2329394   -1.5092472  0.021736336   -2.2329394    0.7236922   392232 
 2910000   0.53674019   -2.2351463   -2.2351463   -1.5096818   0.02874933   -2.2351463   0.72546449   392114 
 2920000   0.53612288   -2.2369541   -2.2369541   -1.5121077  0.025798966   -2.2369541   0.72484642   391997 
 2930000   0.53539281   -2.2363677   -2.2363677   -1.5122904  0.033003291   -2.2363677   0.72407732   391879 
 2940000   0.53579089   -2.2379174   -2.2379174   -1.5130835   0.02815271   -2.2379174   0.72483395   391761 
 2950000   0.53568436   -2.2365217   -2.2365217   -1.5116153  0.030977558   -2.2365217   0.72490633   391644 
 2960000   0.53561209   -2.2348915   -2.2348915   -1.5098645  0.021514276   -2.2348915   0.72502697   391526 
 2970000   0.53446788   -2.2356188   -2.2356188   -1.5119225  0.023560901   -2.2356188   0.72369622   391408 
 2980000   0.53513879   -2.2368566   -2.2368566   -1.5120352  0.030150047   -2.2368566   0.72482135   391291 
 2990000   0.53370006   -2.2336838   -2.2336838   -1.5105931  0.030836471   -2.2336838    0.7230907   391173 
 3000000   0.53463474   -2.2340793   -2.2340793   -1.5095037  0.025938676   -2.2340793   0.72457564   391055 
 3010000   0.53396416   -2.2338767   -2.2338767   -1.5099933  0.024989289   -2.2338767    0.7238834   390938 
 3020000   0.53421889   -2.2366052   -2.2366052   -1.5121578  0.021682392   -2.2366052    0.7244474   390820 
 3030000   0.53306537   -2.2361286   -2.2361286   -1.5130272  0.029897283   -2.2361286   0.72310145   390702 
 3040000   0.53308024   -2.2381477   -2.2381477   -1.5148094  0.025508392   -2.2381477   0.72333823   390585 
 3050000   0.53222078   -2.2354744   -2.2354744   -1.5130841  0.031174545   -2.2354744   0.72239027   390467 
 3060000   0.53224405   -2.2374819   -2.2374819   -1.5148417  0.033621857   -2.2374819   0.72264024   390349 
 3070000   0.53271762   -2.2361087   -2.2361087   -1.5126087  0.033828306   -2.2361087   0.72350007   390232 
 3080000   0.53305546   -2.2354043   -2.2354043   -1.5112264   0.02306962   -2.2354043   0.72417789   390114 
 3090000   0.53215623   -2.2359661   -2.2359661    -1.512793  0.024595982   -2.2359661   0.72317313   389997 
 3100000   0.53182543    -2.235758    -2.235758   -1.5128157  0.027522582    -2.235758   0.72294233   389879 
 3110000   0.53244163   -2.2377229   -2.2377229   -1.5137239  0.032840073   -2.2377229    0.7239991   389761 
 3120000   0.53162107   -2.2345313   -2.2345313   -1.5114309  0.024344349   -2.2345313   0.72310038   389644 
 3130000   0.53156391   -2.2328447   -2.2328447    -1.509603  0.034616925   -2.2328447   0.72324166   389526 
 3140000   0.53043112    -2.232755    -2.232755   -1.5108359  0.026927988    -2.232755   0.72191909   389408 
 3150000   0.53137114   -2.2334128   -2.2334128   -1.5099969  0.025300644   -2.2334128   0.72341581   389291 
 3160000   0.53149254   -2.2343911   -2.2343911   -1.5105906  0.023589387   -2.2343911   0.72380049   389173 
 3170000   0.53126365   -2.2338624   -2.2338624   -1.5101542  0.029280917   -2.2338624    0.7237082   389055 
 3180000   0.52981101   -2.2319667   -2.2319667   -1.5100202  0.033540789   -2.2319667   0.72194648   388938 
 3190000   0.53051512   -2.2330867   -2.2330867   -1.5099613  0.033725497   -2.2330867   0.72312532   388820 
 3200000   0.52987054    -2.232647    -2.232647    -1.510181  0.023059967    -2.232647   0.72246598   388702 
 3210000   0.53096482   -2.2327902   -2.2327902   -1.5086142  0.028012214   -2.2327902   0.72417598   388585 
 3220000   0.53017412   -2.2338858   -2.2338858   -1.5105686  0.025889969   -2.2338858    0.7233172   388467 
 3230000   0.52947273   -2.2323049   -2.2323049   -1.5097252  0.019662458   -2.2323049   0.72257977   388349 
 3240000   0.52938497   -2.2312913   -2.2312913   -1.5086136  0.021184384   -2.2312913   0.72267773   388232 
 3250000   0.53098005   -2.2324861   -2.2324861   -1.5074105  0.026482183   -2.2324861   0.72507561   388114 
 3260000   0.52946644   -2.2316827   -2.2316827    -1.508456    0.0228502   -2.2316827   0.72322673   387997 
 3270000   0.53000111    -2.232389    -2.232389   -1.5082117  0.035758201    -2.232389   0.72417731   387879 
 3280000   0.52987562   -2.2306776   -2.2306776   -1.5064514  0.028828159   -2.2306776   0.72422616   387761 
 3290000   0.52834813   -2.2298899   -2.2298899   -1.5075336  0.027519946   -2.2298899   0.72235637   387644 
 3300000   0.52856421   -2.2295966   -2.2295966   -1.5067248  0.028313369   -2.2295966   0.72287184   387526 
 3310000    0.5267687   -2.2277701   -2.2277701   -1.5071344  0.024010712   -2.2277701    0.7206357   387408 
 3320000   0.52845048   -2.2308377   -2.2308377   -1.5076828   0.03199149   -2.2308377   0.72315483   387291 
 3330000   0.52858362   -2.2310793   -2.2310793   -1.5075218  0.029890684   -2.2310793   0.72355747   387173 
 3340000     0.526857   -2.2290538   -2.2290538     -1.50764  0.023150692   -2.2290538   0.72141384   387055 
 3350000    0.5267695   -2.2313444   -2.2313444   -1.5098323  0.028572611   -2.2313444   0.72151212   386938 
 3360000    0.5274258   -2.2312863   -2.2312863   -1.5086549   0.02816399   -2.2312863   0.72263143   386820 
 3370000   0.52571216   -2.2301093   -2.2301093    -1.509606  0.027271101   -2.2301093   0.72050334   386702 
 3380000   0.52772102   -2.2329887   -2.2329887   -1.5095132  0.028654033   -2.2329887   0.72347544   386585 
 3390000   0.52582172   -2.2294481   -2.2294481   -1.5083564  0.020845453   -2.2294481    0.7210917   386467 
 3400000   0.52600389   -2.2293118   -2.2293118     -1.50775  0.024540214   -2.2293118   0.72156185   386349 
 3410000   0.52633534   -2.2315288   -2.2315288   -1.5092936  0.030720383   -2.2315288   0.72223524   386232 
 3420000   0.52527043   -2.2327368   -2.2327368   -1.5117425  0.033872635   -2.2327368   0.72099426   386114 
 3430000   0.52624611   -2.2309075   -2.2309075   -1.5083551  0.026703672   -2.2309075   0.72255243   385997 
 3440000   0.52542325   -2.2297406   -2.2297406   -1.5080974  0.030043562   -2.2297406   0.72164323   385879 
 3450000   0.52466915   -2.2295697   -2.2295697   -1.5087418  0.029677665   -2.2295697   0.72082793   385761 
 3460000   0.52317371   -2.2282435   -2.2282435    -1.509252  0.029500879   -2.2282435   0.71899146   385644 
 3470000   0.52262623   -2.2283723   -2.2283723   -1.5099134   0.03051727   -2.2283723    0.7184589   385526 
 3480000   0.52437667   -2.2300708   -2.2300708   -1.5089848  0.031395333   -2.2300708   0.72108595   385408 
 3490000   0.52421385   -2.2286438   -2.2286438   -1.5075629  0.026684846   -2.2286438   0.72108095   385291 
 3500000   0.52463075   -2.2305156   -2.2305156   -1.5086401  0.024702211   -2.2305156    0.7218755   385173 
 3510000   0.52349145   -2.2293267   -2.2293267   -1.5087981   0.03474178   -2.2293267    0.7205286   385055 
 3520000    0.5229445   -2.2279867   -2.2279867   -1.5079921  0.028980789   -2.2279867   0.71999456   384938 
 3530000   0.52268566   -2.2275261   -2.2275261   -1.5076673  0.022477961   -2.2275261   0.71985885   384820 
 3540000   0.52381757   -2.2287579   -2.2287579   -1.5071189  0.029721459   -2.2287579   0.72163904   384702 
 3550000   0.52208896   -2.2282341   -2.2282341   -1.5087577  0.028011114   -2.2282341   0.71947643   384585 
 3560000   0.52390158   -2.2307031   -2.2307031   -1.5085072  0.031757348   -2.2307031   0.72219593   384467 
 3570000   0.52184223   -2.2291822   -2.2291822   -1.5096043  0.028869515   -2.2291822   0.71957798   384349 
 3580000   0.52345482     -2.22974     -2.22974   -1.5077186  0.026183498     -2.22974   0.72202141   384232 
 3590000   0.52252164   -2.2296966   -2.2296966    -1.508741  0.025368716   -2.2296966   0.72095564   384114 
 3600000   0.52146077    -2.228656    -2.228656   -1.5089449   0.02741287    -2.228656   0.71971111   383997 
 3610000    0.5216668   -2.2299622   -2.2299622   -1.5097454  0.032841114   -2.2299622   0.72021679   383879 
 3620000   0.52145328   -2.2295165   -2.2295165   -1.5093731  0.027328758   -2.2295165   0.72014336   383761 
 3630000   0.52105461   -2.2297963   -2.2297963   -1.5099841  0.024623211   -2.2297963   0.71981224   383644 
 3640000   0.52047424   -2.2291717   -2.2291717   -1.5099399  0.037286374   -2.2291717   0.71923171   383526 
 3650000   0.52110029    -2.228354    -2.228354   -1.5080356  0.025429854    -2.228354   0.72031845   383408 
 3660000   0.52013768   -2.2277596   -2.2277596   -1.5085523  0.029037271   -2.2277596   0.71920731   383291 
 3670000   0.52076082   -2.2305337   -2.2305337    -1.510243  0.029344612   -2.2305337   0.72029069   383173 
 3680000   0.51886443    -2.231711    -2.231711   -1.5138223  0.025927335    -2.231711   0.71788878   383055 
 3690000   0.52047328   -2.2302751   -2.2302751   -1.5099404  0.027643387   -2.2302751   0.72033476   382938 
 3700000   0.51991987   -2.2300988   -2.2300988   -1.5103082  0.028018877   -2.2300988   0.71979063   382820 
 3710000   0.51912629   -2.2301169   -2.2301169   -1.5112033  0.029569385   -2.2301169   0.71891358   382702 
 3720000   0.51900663   -2.2298849   -2.2298849   -1.5109172  0.026814014   -2.2298849   0.71896767   382585 
 3730000   0.51932252   -2.2292227   -2.2292227   -1.5095954  0.028119577   -2.2292227   0.71962722   382467 
 3740000   0.51793636   -2.2271094   -2.2271094   -1.5091815  0.027318989   -2.2271094   0.71792792   382349 
 3750000    0.5193705   -2.2304368   -2.2304368   -1.5103006  0.027842628   -2.2304368   0.72013619   382232 
 3760000   0.52057648   -2.2333112   -2.2333112   -1.5112799  0.021889267   -2.2333112   0.72203125   382114 
 3770000   0.51830725   -2.2294782   -2.2294782   -1.5103742  0.026588531   -2.2294782   0.71910404   381997 
 3780000    0.5175443   -2.2284946   -2.2284946   -1.5102272  0.032544262   -2.2284946    0.7182674   381879 
 3790000   0.51658119   -2.2271251   -2.2271251   -1.5099728  0.028868826   -2.2271251   0.71715235   381761 
 3800000    0.5181334   -2.2288483   -2.2288483   -1.5093205  0.027982626   -2.2288483   0.71952776   381644 
 3810000   0.51815344   -2.2300438   -2.2300438   -1.5102656  0.026011719   -2.2300438   0.71977813   381526 
 3820000   0.51692645   -2.2290141   -2.2290141   -1.5107183   0.03075483   -2.2290141   0.71829584   381408 
 3830000   0.51730856   -2.2293143   -2.2293143   -1.5102669   0.03016639   -2.2293143   0.71904738   381291 
 3840000   0.51582496   -2.2282475   -2.2282475   -1.5110403  0.026693633   -2.2282475   0.71720717   381173 
 3850000    0.5175493   -2.2290773   -2.2290773   -1.5092498  0.024000344   -2.2290773   0.71982753   381055 
 3860000    0.5161899   -2.2278155   -2.2278155   -1.5096582  0.033065792   -2.2278155   0.71815734   380938 
 3870000   0.51696777    -2.229877    -2.229877   -1.5104145  0.029991327    -2.229877   0.71946242   380820 
 3880000   0.51595899   -2.2287494   -2.2287494   -1.5104684  0.020475255   -2.2287494   0.71828108   380702 
 3890000   0.51619404    -2.229176    -2.229176   -1.5103468  0.025563612    -2.229176   0.71882921   380585 
 3900000   0.51517813   -2.2282671   -2.2282671   -1.5106301  0.024330483   -2.2282671     0.717637   380467 
 3910000   0.51456742   -2.2271976   -2.2271976    -1.510189  0.029515198   -2.2271976   0.71700867   380349 
 3920000   0.51586931   -2.2283444   -2.2283444   -1.5093005  0.022934956   -2.2283444   0.71904393   380232 
 3930000   0.51686686   -2.2314086   -2.2314086   -1.5107506  0.031263764   -2.2314086   0.72065801   380114 
 3940000   0.51509764   -2.2288352   -2.2288352   -1.5104229  0.021104444   -2.2288352   0.71841235   379997 
 3950000    0.5154434   -2.2289633   -2.2289633   -1.5098454  0.024201611   -2.2289633   0.71911789   379879 
 3960000   0.51481933   -2.2272096   -2.2272096   -1.5087392  0.027712211   -2.2272096    0.7184704   379761 
 3970000   0.51467892   -2.2270205   -2.2270205   -1.5085247  0.028159319   -2.2270205    0.7184958   379644 
 3980000   0.51356354   -2.2266545   -2.2266545   -1.5094928  0.021850298   -2.2266545   0.71716163   379526 
 3990000   0.51481218   -2.2281527   -2.2281527   -1.5090239  0.022378161   -2.2281527   0.71912888   379408 
 4000000   0.51384314   -2.2281766   -2.2281766     -1.51018  0.027069116   -2.2281766   0.71799665   379291 
 4010000   0.51338981   -2.2264686   -2.2264686   -1.5088821  0.028421021   -2.2264686   0.71758646   379173 
 4020000   0.51406588   -2.2269388   -2.2269388   -1.5081837  0.021645593   -2.2269388   0.71875511   379055 
 4030000   0.51335272    -2.225398    -2.225398   -1.5074184  0.031342134    -2.225398    0.7179796   378938 
 4040000   0.51282185   -2.2222715   -2.2222715    -1.504811   0.02218282   -2.2222715   0.71746053   378820 
 4050000   0.51339963   -2.2226246   -2.2226246   -1.5041319  0.030417316   -2.2226246   0.71849268   378702 
 4060000   0.51335476   -2.2251204   -2.2251204   -1.5064684  0.030133888   -2.2251204   0.71865192   378585 
 4070000   0.51251066   -2.2266945   -2.2266945   -1.5090006  0.028855551   -2.2266945   0.71769395   378467 
 4080000   0.51211334   -2.2228993   -2.2228993   -1.5055381   0.02424107   -2.2228993   0.71736123   378349 
 4090000   0.51238165   -2.2220343   -2.2220343   -1.5040752  0.028246089   -2.2220343   0.71795909   378232 
 4100000   0.51236665   -2.2216537   -2.2216537   -1.5034915  0.028458876   -2.2216537   0.71816212   378114 
 4110000   0.51266627    -2.223643    -2.223643   -1.5048385  0.027833521    -2.223643    0.7188045   377997 
 4120000   0.51081674   -2.2213422   -2.2213422   -1.5049073  0.028511812   -2.2213422   0.71643494   377879 
 4130000   0.51232386   -2.2227227   -2.2227227   -1.5039495  0.026109968   -2.2227227   0.71877317   377761 
 4140000   0.51105102   -2.2213618   -2.2213618   -1.5041522  0.027268056   -2.2213618   0.71720956   377644 
 4150000    0.5116224   -2.2218801   -2.2218801   -1.5036443  0.024495349   -2.2218801   0.71823586   377526 
 4160000   0.51115692   -2.2202954   -2.2202954   -1.5024886  0.025281413   -2.2202954   0.71780676   377408 
 4170000   0.51028858   -2.2206281   -2.2206281   -1.5038185  0.030280432   -2.2206281   0.71680959   377291 
 4180000   0.51092943   -2.2187628   -2.2187628   -1.5008284  0.036559261   -2.2187628   0.71793433   377173 
 4190000   0.51136643   -2.2215276   -2.2215276   -1.5027544  0.032465967   -2.2215276   0.71877325   377055 
 4200000   0.51000841   -2.2220307   -2.2220307   -1.5049438  0.021966845   -2.2220307   0.71708694   376938 
 4210000    0.5113095   -2.2221988   -2.2221988   -1.5030574  0.023583852   -2.2221988   0.71914144   376820 
 4220000   0.50953155   -2.2191351   -2.2191351   -1.5022698  0.023269443   -2.2191351   0.71686529   376702 
 4230000   0.50884264   -2.2182203   -2.2182203   -1.5021018  0.034422426   -2.2182203   0.71611848   376585 
 4240000   0.50960702   -2.2215997   -2.2215997   -1.5041807  0.027879536   -2.2215997   0.71741903   376467 
 4250000   0.50921944   -2.2215871   -2.2215871   -1.5044889  0.031037966   -2.2215871   0.71709816   376349 
 4260000    0.5089878   -2.2206351   -2.2206351   -1.5036403  0.024788804   -2.2206351   0.71699486   376232 
 4270000   0.50947046   -2.2213223   -2.2213223   -1.5034223  0.025647062   -2.2213223   0.71789992   376114 
 4280000   0.50944648   -2.2212926   -2.2212926   -1.5032031  0.030324484   -2.2212926   0.71808952   375997 
 4290000   0.50894669   -2.2214635   -2.2214635   -1.5038533  0.024224369   -2.2214635   0.71761024   375879 
 4300000   0.50819937    -2.221337    -2.221337   -1.5045555  0.022921682    -2.221337   0.71678155   375761 
 4310000   0.50848147    -2.219675    -2.219675   -1.5022722  0.028739381    -2.219675   0.71740281   375644 
 4320000   0.50772133   -2.2189654   -2.2189654   -1.5024099  0.028243539   -2.2189654   0.71655544   375526 
 4330000   0.50768643   -2.2191053   -2.2191053   -1.5023739  0.030618439   -2.2191053    0.7167314   375408 
 4340000   0.50861991   -2.2195213   -2.2195213   -1.5012482  0.027735531   -2.2195213    0.7182731   375291 
 4350000   0.50775277    -2.218128    -2.218128   -1.5008539  0.032444842    -2.218128   0.71727406   375173 
 4360000   0.50746638    -2.217377    -2.217377   -1.5002819  0.022353666    -2.217377   0.71709503   375055 
 4370000   0.50637843   -2.2177768   -2.2177768   -1.5019958  0.026700701   -2.2177768   0.71578095   374938 
 4380000   0.50673721   -2.2185025   -2.2185025   -1.5019889  0.025470443   -2.2185025    0.7165136   374820 
 4390000    0.5060028   -2.2169216   -2.2169216   -1.5012211  0.027650611   -2.2169216   0.71570047   374702 
 4400000    0.5064314   -2.2187258   -2.2187258   -1.5021954   0.02400762   -2.2187258   0.71653043   374585 
 4410000   0.50523143   -2.2168741   -2.2168741   -1.5018162   0.02247988   -2.2168741   0.71505789   374467 
 4420000   0.50550655   -2.2148486   -2.2148486   -1.4991758  0.028814641   -2.2148486    0.7156728   374349 
 4430000   0.50599495   -2.2156769   -2.2156769   -1.4990887  0.020655645   -2.2156769   0.71658822   374232 
 4440000   0.50654925   -2.2159169   -2.2159169   -1.4983175  0.022877315   -2.2159169   0.71759948   374114 
 4450000   0.50535316   -2.2139877   -2.2139877   -1.4978587  0.034889876   -2.2139877   0.71612901   373997 
 4460000    0.5055888   -2.2148396   -2.2148396   -1.4981506  0.029448792   -2.2148396   0.71668905   373879 
 4470000   0.50474219   -2.2139111   -2.2139111   -1.4981963  0.027262757   -2.2139111   0.71571484   373761 
 4480000   0.50639717   -2.2157037   -2.2157037   -1.4974173   0.02959957   -2.2157037   0.71828642   373644 
 4490000   0.50514548   -2.2140401   -2.2140401   -1.4973027  0.028917545   -2.2140401   0.71673734   373526 
 4500000   0.50477658   -2.2129392   -2.2129392    -1.496499  0.036247866   -2.2129392   0.71644024   373408 
 4510000    0.5045336   -2.2144171   -2.2144171   -1.4980973  0.023596585   -2.2144171   0.71631982   373291 
 4520000   0.50298744   -2.2142786   -2.2142786   -1.4999281  0.018136632   -2.2142786   0.71435045   373173 
 4530000    0.5035953   -2.2151216   -2.2151216   -1.4996816  0.026196588   -2.2151216   0.71543998   373055 
 4540000   0.50325835   -2.2153956   -2.2153956     -1.50021  0.024808492   -2.2153956   0.71518558   372938 
 4550000   0.50293644   -2.2153757   -2.2153757   -1.5004214  0.017239798   -2.2153757   0.71495433   372820 
 4560000   0.50286779   -2.2155509   -2.2155509   -1.5004678  0.034517006   -2.2155509   0.71508306   372702 
 4570000   0.50277663   -2.2124059   -2.2124059    -1.497228  0.028295002   -2.2124059   0.71517794   372585 
 4580000   0.50258614   -2.2106277   -2.2106277   -1.4954943  0.031342031   -2.2106277   0.71513346   372467 
 4590000   0.50408174   -2.2143933   -2.2143933   -1.4969044  0.024603243   -2.2143933   0.71748887   372349 
 4600000   0.50206221   -2.2119229   -2.2119229   -1.4970839  0.020730742   -2.2119229   0.71483898   372232 
 4610000   0.50201147   -2.2109691   -2.2109691   -1.4959757  0.025873495   -2.2109691   0.71499339   372114 
 4620000   0.50170104   -2.2111125   -2.2111125   -1.4963365  0.030319228   -2.2111125     0.714776   371997 
 4630000   0.50146408   -2.2108032   -2.2108032   -1.4961381  0.026551287   -2.2108032    0.7146651   371879 
 4640000    0.5017594   -2.2099459   -2.2099459   -1.4946329  0.025584805   -2.2099459   0.71531295   371761 
 4650000   0.50097133   -2.2082391   -2.2082391   -1.4938248  0.032899455   -2.2082391   0.71441431   371644 
 4660000   0.50178833   -2.2116248   -2.2116248   -1.4958182  0.028889182   -2.2116248   0.71580668   371526 
 4670000   0.50108423   -2.2115637   -2.2115637   -1.4965344   0.02518126   -2.2115637   0.71502936   371408 
 4680000   0.49968127   -2.2103564   -2.2103564   -1.4971043  0.026583912   -2.2103564   0.71325208   371291 
 4690000   0.50058019   -2.2096988   -2.2096988   -1.4949365  0.021612627   -2.2096988   0.71476238   371173 
 4700000   0.50016074   -2.2090589   -2.2090589   -1.4946683  0.026840291   -2.2090589   0.71439057   371055 
 4710000   0.50104733   -2.2119066   -2.2119066    -1.496024  0.025301813   -2.2119066   0.71588263   370938 
 4720000   0.49957785   -2.2103358   -2.2103358   -1.4963256  0.025533056   -2.2103358   0.71401021   370820 
 4730000   0.49924188   -2.2087339   -2.2087339   -1.4949767  0.023995822   -2.2087339   0.71375716   370702 
 4740000   0.49982597   -2.2108753   -2.2108753   -1.4960575  0.032760599   -2.2108753   0.71481783   370585 
 4750000     0.498721    -2.210753    -2.210753   -1.4972883  0.017432791    -2.210753   0.71346476   370467 
 4760000   0.50013519   -2.2139167   -2.2139167   -1.4982009  0.026927696   -2.2139167   0.71571585   370349 
 4770000   0.49846684   -2.2122279   -2.2122279   -1.4986741  0.027275655   -2.2122279   0.71355378   370232 
 4780000   0.49889824   -2.2114801   -2.2114801   -1.4970811  0.025273527   -2.2114801   0.71439903   370114 
 4790000   0.49952177   -2.2122728   -2.2122728   -1.4967548  0.025140633   -2.2122728   0.71551809   369997 
 4800000    0.5000407   -2.2121956   -2.2121956   -1.4957057   0.02939266   -2.2121956    0.7164899   369879 
 4810000   0.49727491   -2.2081576   -2.2081576   -1.4954033  0.020925208   -2.2081576   0.71275429   369761 
 4820000   0.49775908   -2.2098661   -2.2098661    -1.496192  0.023188535   -2.2098661   0.71367409   369644 
 4830000   0.49830322   -2.2121552   -2.2121552   -1.4974728  0.032650445   -2.2121552   0.71468241   369526 
 4840000   0.49810547   -2.2128316   -2.2128316   -1.4982046  0.020767715   -2.2128316   0.71462699   369408 
 4850000   0.49739575   -2.2086954   -2.2086954   -1.4948605  0.027844466   -2.2086954   0.71383485   369291 
 4860000   0.49629928   -2.2087737   -2.2087737   -1.4962848  0.027711776   -2.2087737   0.71248892   369173 
 4870000   0.49777852   -2.2106046   -2.2106046   -1.4957636  0.025924323   -2.2106046     0.714841   369055 
 4880000   0.49833051   -2.2103537   -2.2103537    -1.494493  0.025486156   -2.2103537   0.71586064   368938 
 4890000   0.49729838   -2.2085137   -2.2085137   -1.4939072  0.027652503   -2.2085137   0.71460653   368820 
 4900000   0.49565784   -2.2065573   -2.2065573   -1.4940803  0.025009533   -2.2065573   0.71247705   368702 
 4910000   0.49606564   -2.2074613   -2.2074613   -1.4941717  0.024629876   -2.2074613   0.71328959   368585 
 4920000   0.49622513   -2.2088556   -2.2088556   -1.4951082  0.024908052   -2.2088556   0.71374742   368467 
 4930000   0.49518186   -2.2072098   -2.2072098   -1.4947348  0.030034808   -2.2072098   0.71247499   368349 
 4940000   0.49547557   -2.2069725   -2.2069725   -1.4938484  0.029327456   -2.2069725   0.71312411   368232 
 4950000   0.49521168   -2.2074313   -2.2074313   -1.4944585  0.028648881   -2.2074313   0.71297276   368114 
 4960000   0.49569357    -2.208716    -2.208716   -1.4948226  0.027183567    -2.208716   0.71389347   367997 
 4970000   0.49470783   -2.2088419   -2.2088419   -1.4961395  0.032256087   -2.2088419   0.71270235   367879 
 4980000   0.49435407   -2.2069676   -2.2069676   -1.4945464  0.026203554   -2.2069676   0.71242121   367761 
 4990000   0.49548651   -2.2092667   -2.2092667   -1.4949862  0.025445634   -2.2092667   0.71428042   367644 
 5000000   0.49552452   -2.2093707   -2.2093707   -1.4948061  0.030389871   -2.2093707   0.71456457   367526 
 5010000    0.4942898   -2.2081753   -2.2081753   -1.4951624  0.028635771   -2.2081753   0.71301298   367408 
 5020000    0.4941889   -2.2080146   -2.2080146   -1.4949201  0.029907143   -2.2080146   0.71309452   367291 
 5030000   0.49341497   -2.2078895   -2.2078895   -1.4956829  0.026507254   -2.2078895   0.71220659   367173 
 5040000   0.49378853   -2.2088422   -2.2088422   -1.4958673  0.025764667   -2.2088422   0.71297491   367055 
 5050000   0.49382262   -2.2080444   -2.2080444   -1.4947929  0.021855759   -2.2080444   0.71325149   366938 
 5060000   0.49201035   -2.2044008   -2.2044008   -1.4935383  0.029913745   -2.2044008   0.71086254   366820 
 5070000   0.49370701   -2.2057198   -2.2057198   -1.4921764  0.024233721   -2.2057198   0.71354343   366702 
 5080000   0.49197298    -2.204562    -2.204562   -1.4932978  0.026851961    -2.204562   0.71126422   366585 
 5090000   0.49377754   -2.2075726   -2.2075726   -1.4934696  0.021438187   -2.2075726     0.714103   366467 
 5100000   0.49257728   -2.2051071   -2.2051071   -1.4925105  0.025156773   -2.2051071   0.71259663   366349 
 5110000   0.49355782   -2.2049227   -2.2049227   -1.4906795  0.028412152   -2.2049227   0.71424325   366232 
 5120000   0.49301061   -2.2049122   -2.2049122   -1.4912309   0.03016224   -2.2049122   0.71368132   366114 
 5130000   0.49217462   -2.2033862   -2.2033862   -1.4906873  0.027610368   -2.2033862    0.7126989   365997 
 5140000    0.4925662   -2.2053946   -2.2053946   -1.4918986  0.035525767   -2.2053946   0.71349596   365879 
 5150000   0.49121716   -2.2042022   -2.2042022   -1.4924308  0.034954542   -2.2042022   0.71177139   365761 
 5160000   0.49338443   -2.2068192   -2.2068192   -1.4916786  0.029754546   -2.2068192   0.71514052   365644 
 5170000   0.49246357   -2.2051773   -2.2051773   -1.4911411  0.026250664   -2.2051773   0.71403621   365526 
 5180000   0.49155248   -2.2047997   -2.2047997   -1.4918544  0.028523715   -2.2047997   0.71294534   365408 
 5190000   0.48976657   -2.2023892   -2.2023892   -1.4918066  0.025285007   -2.2023892   0.71058259   365291 
 5200000    0.4914843   -2.2060109   -2.2060109   -1.4927057   0.02949609   -2.2060109    0.7133052   365173 
 5210000    0.4918067   -2.2066824   -2.2066824   -1.4926785  0.026993472   -2.2066824   0.71400382   365055 
 5220000   0.49098208   -2.2063131   -2.2063131   -1.4932779  0.031212721   -2.2063131   0.71303517   364938 
 5230000   0.49073868   -2.2049509   -2.2049509   -1.4920387  0.026444213   -2.2049509   0.71291221   364820 
 5240000   0.49063513   -2.2035385   -2.2035385   -1.4905461   0.03298699   -2.2035385   0.71299239   364702 
 5250000   0.49049772   -2.2042654   -2.2042654   -1.4912439  0.023323551   -2.2042654   0.71302144   364585 
 5260000   0.49055724   -2.2048927   -2.2048927   -1.4915539  0.019012813   -2.2048927   0.71333885   364467 
 5270000   0.48963889   -2.2036134   -2.2036134   -1.4913793  0.028446433   -2.2036134   0.71223403   364349 
 5280000   0.48790128   -2.2009229   -2.2009229   -1.4909884  0.029253879   -2.2009229   0.70993445   364232 
 5290000   0.48935078   -2.2021709   -2.2021709   -1.4898966  0.018249153   -2.2021709   0.71227435   364114 
 5300000   0.48899853   -2.2023975   -2.2023975   -1.4904071  0.027706889   -2.2023975   0.71199041   363997 
 5310000   0.48964959   -2.2037601   -2.2037601   -1.4905905  0.025635048   -2.2037601   0.71316956   363879 
 5320000    0.4889185    -2.203523    -2.203523   -1.4911872  0.026638937    -2.203523   0.71233574   363761 
 5330000   0.48784862    -2.201248    -2.201248   -1.4902423  0.027496185    -2.201248   0.71100565   363644 
 5340000   0.48718718    -2.201555    -2.201555   -1.4912829  0.025897551    -2.201555   0.71027213   363526 
 5350000   0.48707391   -2.2007318   -2.2007318   -1.4903942  0.029205302   -2.2007318   0.71033757   363408 
 5360000   0.48792135   -2.2024596   -2.2024596    -1.490657   0.03024265   -2.2024596   0.71180262   363291 
 5370000   0.48721848   -2.2012009   -2.2012009   -1.4901927  0.023254308   -2.2012009   0.71100818   363173 
 5380000   0.48564334     -2.19986     -2.19986   -1.4909201  0.023804515     -2.19986   0.70893988   363055 
 5390000   0.48677865   -2.2025215   -2.2025215   -1.4916952  0.022123536   -2.2025215   0.71082628   362938 
 5400000   0.48643629   -2.2007141   -2.2007141   -1.4901567  0.029964866   -2.2007141   0.71055737   362820 
 5410000    0.4873804   -2.2010442   -2.2010442   -1.4888761  0.031277153   -2.2010442   0.71216808   362702 
 5420000   0.48690029   -2.2007835   -2.2007835   -1.4890873  0.025057606   -2.2007835   0.71169612   362585 
 5430000   0.48643487    -2.202007    -2.202007   -1.4907598  0.024431974    -2.202007   0.71124729   362467 
 5440000   0.48574291   -2.2006568   -2.2006568     -1.49019  0.028451092   -2.2006568   0.71046682   362349 
 5450000   0.48685723   -2.2020448   -2.2020448   -1.4897181  0.022506783   -2.2020448   0.71232667   362232 
 5460000   0.48706246   -2.2021655   -2.2021655   -1.4893063  0.033382411   -2.2021655   0.71285917   362114 
 5470000   0.48580974   -2.2000981   -2.2000981   -1.4888426  0.029007933   -2.2000981   0.71125551   361997 
 5480000    0.4859855   -2.1999305   -2.1999305   -1.4881857  0.027459268   -2.1999305   0.71174483   361879 
 5490000   0.48607967   -2.2001096   -2.2001096   -1.4879946  0.025914567   -2.2001096   0.71211496   361761 
 5500000   0.48627572    -2.199873    -2.199873   -1.4872403  0.028153931    -2.199873   0.71263265   361644 
 5510000   0.48507707   -2.1988681   -2.1988681   -1.4877601  0.028640316   -2.1988681   0.71110807   361526 
 5520000   0.48533003   -2.1987591   -2.1987591   -1.4870479  0.029766736   -2.1987591    0.7117112   361408 
 5530000   0.48475189   -2.1989914   -2.1989914   -1.4878979  0.025778426   -2.1989914   0.71109359   361291 
 5540000   0.48338455   -2.1962739   -2.1962739   -1.4869544  0.030602883   -2.1962739   0.70931949   361173 
 5550000   0.48578301   -2.1996881   -2.1996881   -1.4866162  0.026231292   -2.1996881   0.71307196   361055 
 5560000   0.48486347   -2.1983802   -2.1983802   -1.4864273  0.026272583   -2.1983802   0.71195289   360938 
 5570000   0.48498372   -2.2002273   -2.2002273    -1.487865  0.030468595   -2.2002273   0.71236234   360820 
 5580000   0.48421789   -2.1995953   -2.1995953   -1.4881252  0.028814265   -2.1995953   0.71147015   360702 
 5590000   0.48314755   -2.1971475   -2.1971475   -1.4870197  0.028832296   -2.1971475   0.71012782   360585 
 5600000   0.48432629    -2.197506    -2.197506   -1.4854127  0.021838675    -2.197506   0.71209335   360467 
 5610000   0.48384776   -2.1964654   -2.1964654   -1.4848427  0.023975084   -2.1964654   0.71162273   360349 
 5620000   0.48359343   -2.1964612   -2.1964612   -1.4849815  0.026306638   -2.1964612   0.71147968   360232 
 5630000   0.48304856   -2.1958125   -2.1958125   -1.4849015  0.022209418   -2.1958125   0.71091092   360114 
 5640000    0.4828308   -2.1972725   -2.1972725   -1.4864512  0.031665742   -2.1972725   0.71082138   359997 
 5650000   0.48166282   -2.1953713   -2.1953713   -1.4860369  0.025900976   -2.1953713   0.70933439   359879 
 5660000   0.48115951   -2.1932247   -2.1932247   -1.4843991  0.021825002   -2.1932247   0.70882559   359761 
 5670000   0.48307754   -2.1970338   -2.1970338   -1.4851511  0.028290353   -2.1970338   0.71188268   359644 
 5680000   0.48225861   -2.1982698   -2.1982698   -1.4873606  0.025639199   -2.1982698   0.71090912   359526 
 5690000    0.4805745     -2.19349     -2.19349   -1.4848309  0.030344972     -2.19349   0.70865912   359408 
 5700000   0.48079313   -2.1916429   -2.1916429   -1.4824306  0.030821556   -2.1916429   0.70921239   359291 
 5710000   0.48172725   -2.1945306   -2.1945306   -1.4837069   0.03181392   -2.1945306   0.71082375   359173 
 5720000   0.48056452   -2.1955671   -2.1955671    -1.486226  0.029736166   -2.1955671    0.7093411   359055 
 5730000   0.48063428   -2.1972889   -2.1972889   -1.4876135   0.02312612   -2.1972889   0.70967532   358938 
 5740000   0.48039006   -2.1952034   -2.1952034   -1.4856554  0.025778642   -2.1952034   0.70954798   358820 
 5750000   0.47978898   -2.1935229   -2.1935229   -1.4846296  0.023803704   -2.1935229   0.70889329   358702 
 5760000    0.4802176   -2.1945257   -2.1945257   -1.4847676   0.03106275   -2.1945257   0.70975809   358585 
 5770000    0.4793158   -2.1935581   -2.1935581   -1.4848997  0.028240292   -2.1935581   0.70865844   358467 
 5780000   0.48020665   -2.1952563   -2.1952563    -1.485047   0.02744604   -2.1952563   0.71020933   358349 
 5790000   0.47969941   -2.1956285   -2.1956285   -1.4859377  0.024090617   -2.1956285   0.70969085   358232 
 5800000    0.4799796    -2.194279    -2.194279   -1.4839397  0.022435944    -2.194279   0.71033935   358114 
 5810000   0.47833835   -2.1927438   -2.1927438    -1.484602  0.028110728   -2.1927438   0.70814178   357997 
 5820000   0.47981133   -2.1955136   -2.1955136    -1.484957  0.030788206   -2.1955136   0.71055661   357879 
 5830000   0.47783727   -2.1930196   -2.1930196    -1.485153  0.025483189   -2.1930196   0.70786661   357761 
 5840000   0.47883925      -2.1957      -2.1957    -1.486117  0.025121227      -2.1957   0.70958299   357644 
 5850000   0.47792128   -2.1939403   -2.1939403   -1.4854839   0.02368808   -2.1939403   0.70845641   357526 
 5860000   0.47751506   -2.1929249   -2.1929249    -1.484837  0.028482233   -2.1929249   0.70808795   357408 
 5870000   0.47765718   -2.1930119   -2.1930119   -1.4844812    0.0237223   -2.1930119   0.70853063   357291 
 5880000   0.47625635    -2.189205    -2.189205   -1.4825189  0.026950544    -2.189205   0.70668611   357173 
 5890000   0.47740576   -2.1904239   -2.1904239   -1.4817981  0.026732529   -2.1904239   0.70862576   357055 
 5900000   0.47732807   -2.1905204   -2.1905204   -1.4817778  0.019780639   -2.1905204   0.70874268   356938 
 5910000   0.47694634   -2.1896725   -2.1896725   -1.4812624  0.026175674   -2.1896725   0.70841007   356820 
 5920000   0.47711284   -2.1889615   -2.1889615   -1.4800697  0.024605057   -2.1889615    0.7088918   356702 
 5930000    0.4767471   -2.1864019   -2.1864019   -1.4778211  0.027508147   -2.1864019   0.70858081   356585 
 5940000   0.47736608   -2.1862687   -2.1862687    -1.476533  0.022000931   -2.1862687   0.70973565   356467 
 5950000   0.47610933   -2.1854866   -2.1854866    -1.477385  0.027288811   -2.1854866   0.70810155   356349 
 5960000   0.47773809   -2.1886268   -2.1886268   -1.4778694  0.026161481   -2.1886268   0.71075731   356232 
 5970000   0.47642767   -2.1885799   -2.1885799   -1.4795373  0.020867576   -2.1885799   0.70904259   356114 
 5980000   0.47532335     -2.18816     -2.18816   -1.4805284  0.024395102     -2.18816   0.70763159   355997 
 5990000   0.47594722   -2.1869945   -2.1869945   -1.4781992   0.02919838   -2.1869945   0.70879531   355879 
 6000000     0.475205   -2.1856777   -2.1856777    -1.477753  0.023411991   -2.1856777   0.70792469   355761 
 6010000   0.47559269   -2.1889055   -2.1889055   -1.4801702  0.021189963   -2.1889055   0.70873533   355644 
 6020000   0.47480698   -2.1886085   -2.1886085   -1.4808092  0.025957074   -2.1886085    0.7077993   355526 
 6030000   0.47408917   -2.1863853   -2.1863853   -1.4794214  0.028132369   -2.1863853   0.70696389   355408 
 6040000   0.47516115   -2.1878839   -2.1878839   -1.4790881  0.023578001   -2.1878839   0.70879577   355291 
 6050000    0.4756246   -2.1893233   -2.1893233   -1.4796005  0.029616752   -2.1893233   0.70972281   355173 
 6060000   0.47388881   -2.1866161   -2.1866161   -1.4792484  0.019030511   -2.1866161   0.70736769   355055 
 6070000   0.47450968   -2.1860243   -2.1860243   -1.4774963  0.030575487   -2.1860243   0.70852794   354938 
 6080000   0.47258253   -2.1864931   -2.1864931    -1.480608  0.023591365   -2.1864931   0.70588503   354820 
 6090000   0.47310438   -2.1878617   -2.1878617   -1.4809622  0.038916008   -2.1878617   0.70689959   354702 
 6100000   0.47313405   -2.1884902   -2.1884902    -1.481313  0.028186654   -2.1884902   0.70717719   354585 
 6110000    0.4732298   -2.1871866   -2.1871866   -1.4796309  0.019628027   -2.1871866   0.70755576   354467 
 6120000    0.4725293    -2.185277    -2.185277   -1.4785333  0.035817289    -2.185277   0.70674367   354349 
 6130000   0.47261878   -2.1857214   -2.1857214   -1.4786104  0.032385416   -2.1857214   0.70711097   354232 
 6140000   0.47219776   -2.1852699   -2.1852699   -1.4785534  0.031899745   -2.1852699   0.70671649   354114 
 6150000   0.47201366   -2.1855432   -2.1855432   -1.4788688  0.025924605   -2.1855432   0.70667444   353997 
 6160000   0.47235069   -2.1866306   -2.1866306   -1.4792158  0.030558547   -2.1866306   0.70741483   353879 
 6170000   0.47144616    -2.184558    -2.184558   -1.4782623  0.019334741    -2.184558   0.70629567   353761 
 6180000   0.47032806   -2.1817101   -2.1817101   -1.4768564  0.025094625   -2.1817101   0.70485371   353644 
 6190000   0.47346122   -2.1853308   -2.1853308   -1.4755448  0.032215083   -2.1853308   0.70978603   353526 
 6200000   0.47069691   -2.1824114   -2.1824114   -1.4765339  0.029353687   -2.1824114   0.70587755   353408 
 6210000   0.47241533   -2.1853497   -2.1853497   -1.4766605  0.026527849   -2.1853497   0.70868918   353291 
 6220000    0.4710476   -2.1813908   -2.1813908   -1.4745173  0.022251309   -2.1813908    0.7068735   353173 
 6230000   0.47120244   -2.1814957   -2.1814957   -1.4741535  0.023638335   -2.1814957   0.70734218   353055 
 6240000   0.47002529   -2.1802412   -2.1802412   -1.4744322  0.025006875   -2.1802412   0.70580901   352938 
 6250000   0.47004519   -2.1826096   -2.1826096   -1.4765346  0.026206605   -2.1826096   0.70607497   352820 
 6260000   0.47051253   -2.1822152   -2.1822152   -1.4752018  0.027718808   -2.1822152   0.70701344   352702 
 6270000   0.47000302   -2.1808154   -2.1808154   -1.4743332  0.023800402   -2.1808154   0.70648218   352585 
 6280000   0.46920257   -2.1795131   -2.1795131   -1.4739979  0.029322509   -2.1795131   0.70551511   352467 
 6290000   0.47041514   -2.1824555   -2.1824555   -1.4748802  0.019981398   -2.1824555   0.70757527   352349 
 6300000   0.46960728   -2.1807657   -2.1807657    -1.474171  0.029035072   -2.1807657   0.70659476   352232 
 6310000   0.46964537   -2.1827956   -2.1827956   -1.4759067  0.026661087   -2.1827956   0.70688887   352114 
 6320000   0.46814286   -2.1840894   -2.1840894   -1.4792278  0.029506161   -2.1840894   0.70486159   351997 
 6330000   0.46825674   -2.1807541   -2.1807541   -1.4754846  0.024186883   -2.1807541   0.70526948   351879 
 6340000   0.46733934   -2.1800978   -2.1800978   -1.4759739   0.02579702   -2.1800978   0.70412384   351761 
 6350000   0.46827295   -2.1822382   -2.1822382   -1.4764729  0.030582693   -2.1822382   0.70576523   351644 
 6360000   0.46754952   -2.1794293   -2.1794293   -1.4745178  0.024374185   -2.1794293   0.70491144   351526 
 6370000   0.46703138   -2.1805241   -2.1805241   -1.4761574  0.028752196   -2.1805241    0.7043667   351408 
 6380000   0.46755727   -2.1819802   -2.1819802   -1.4765856  0.027203046   -2.1819802    0.7053947   351291 
 6390000    0.4682204   -2.1811973   -2.1811973   -1.4745647  0.027137908   -2.1811973   0.70663251   351173 
 6400000    0.4671074   -2.1803771   -2.1803771   -1.4751874  0.025778865   -2.1803771   0.70518973   351055 
 6410000   0.46657432    -2.179726    -2.179726   -1.4751062  0.028661189    -2.179726   0.70461979   350938 
 6420000   0.46789559   -2.1809923   -2.1809923   -1.4741395  0.032370862   -2.1809923   0.70685284   350820 
 6430000   0.46715173   -2.1804238   -2.1804238   -1.4744573  0.032797069   -2.1804238   0.70596653   350702 
 6440000   0.46661076   -2.1809049   -2.1809049   -1.4755205   0.02851046   -2.1809049   0.70538435   350585 
 6450000   0.46538695   -2.1784523   -2.1784523   -1.4746811  0.028843811   -2.1784523   0.70377117   350467 
 6460000    0.4653148   -2.1796389   -2.1796389   -1.4757399  0.030996234   -2.1796389   0.70389905   350349 
 6470000   0.46673191   -2.1818976   -2.1818976   -1.4756189  0.035929571   -2.1818976   0.70627864   350232 
 6480000   0.46614145   -2.1802605   -2.1802605   -1.4746376  0.025835502   -2.1802605   0.70562286   350114 
 6490000   0.46479893   -2.1770493   -2.1770493   -1.4732235  0.034569735   -2.1770493   0.70382582   349997 
 6500000   0.46645954   -2.1799538   -2.1799538   -1.4733751  0.028853782   -2.1799538   0.70657864   349879 
 6510000   0.46621799   -2.1803717   -2.1803717   -1.4739207  0.020331578   -2.1803717     0.706451   349761 
[...]
28340000  0.033174175   -1.1556106   -1.1556106  -0.96643235 -0.0059782357   -1.1556106   0.18917825    92938 
28350000  0.032725933   -1.1488259   -1.1488259  -0.96196656 0.00012418765   -1.1488259   0.18685937    92820 
28360000   0.03257849   -1.1419763   -1.1419763  -0.95572202 -0.0019935753   -1.1419763   0.18625427    92702 
28370000  0.032367632    -1.141997    -1.141997  -0.95671436 -0.00099023772    -1.141997   0.18528263    92585 
28380000  0.032074167   -1.1393425   -1.1393425  -0.95550548 -0.0014804337   -1.1393425   0.18383704    92467 
28390000  0.031918001    -1.134988    -1.134988  -0.95181226 -0.0043654021    -1.134988   0.18317571    92349 
28400000  0.031908476   -1.1310403   -1.1310403  -0.94768694 -0.0039504318   -1.1310403   0.18335334    92232 
28410000  0.032177973   -1.1288877   -1.1288877  -0.94374889 -0.0028431541   -1.1288877    0.1851388    92114 
28420000  0.031437172   -1.1242998   -1.1242998  -0.94319319 -0.0076127842   -1.1242998   0.18110657    91997 
28430000  0.031529659   -1.1253663   -1.1253663  -0.94349364 -0.0063086146   -1.1253663   0.18187265    91879 
28440000  0.031054157   -1.1204867   -1.1204867  -0.94112655 -0.0064144499   -1.1204867   0.17936017    91761 
28450000   0.03061043   -1.1178517   -1.1178517  -0.94082861 -0.0044822414   -1.1178517   0.17702304    91644 
28460000   0.03051883    -1.113627    -1.113627  -0.93690616 -0.0050383139    -1.113627   0.17672085    91526 
28470000  0.030285145   -1.1117931   -1.1117931  -0.93619901 -0.0063809905   -1.1117931   0.17559407    91408 
28480000  0.030168324   -1.1074198   -1.1074198  -0.93227892 -0.0083270583   -1.1074198   0.17514092    91291 
28490000  0.030240222   -1.1025146   -1.1025146  -0.92673677 -0.0010808921   -1.1025146   0.17577782    91177 
28500000  0.029899149   -1.0976819   -1.0976819  -0.92367289 -0.006844336   -1.0976819   0.17400901    91065 
28510000  0.029474954   -1.0965953   -1.0965953  -0.92485513 -0.0080014391   -1.0965953   0.17174016    90959 
28520000  0.029616605   -1.0944075   -1.0944075  -0.92164445 -0.0026777447   -1.0944075   0.17276304    90855 
28530000  0.029083676   -1.0874088   -1.0874088  -0.91756194 -0.00021645117   -1.0874088   0.16984685    90752 
28540000   0.02935909   -1.0859337   -1.0859337   -0.9142704 -0.00046556404   -1.0859337   0.17166332    90642 
28550000  0.028961965   -1.0821603   -1.0821603   -0.9126507 -0.0033346826   -1.0821603   0.16950963    90552 
28560000  0.028986923   -1.0786155   -1.0786155  -0.90875528 -0.0063837089   -1.0786155   0.16986017    90443 
28570000  0.028901118    -1.074388    -1.074388  -0.90486195 -0.0044610798    -1.074388   0.16952606    90353 
28580000  0.028524103    -1.073234    -1.073234  -0.90573774 -0.0021644259    -1.073234   0.16749626    90255 
28590000  0.028325135   -1.0707909   -1.0707909  -0.90429883 -0.0053274014   -1.0707909   0.16649208    90166 
28600000  0.028213862   -1.0688601   -1.0688601  -0.90284717 0.00098767708   -1.0688601   0.16601295    90071 
28610000  0.028117748   -1.0677309   -1.0677309  -0.90210881 -0.0070355856   -1.0677309   0.16562209    89976 
28620000  0.027756375   -1.0605652   -1.0605652  -0.89692258 0.0015964822   -1.0605652   0.16364262    89894 
28630000  0.027802659   -1.0611589   -1.0611589  -0.89709008 -0.0025815319   -1.0611589   0.16406882    89810 
28640000  0.027546817   -1.0534938   -1.0534938  -0.89077353 -0.0066778407   -1.0534938   0.16272029    89721 
28650000  0.027233879   -1.0492124   -1.0492124  -0.88820781 -0.0049304809   -1.0492124   0.16100454    89647 
28660000  0.027032847   -1.0494709   -1.0494709  -0.88949783 -0.0049856079   -1.0494709   0.15997309    89559 
28670000  0.027134331   -1.0459853   -1.0459853  -0.88525374 -0.0068794442   -1.0459853   0.16073158    89471 
28680000  0.027031537   -1.0421326   -1.0421326  -0.88189711 -0.0057099674   -1.0421326   0.16023551    89408 
28690000  0.026674799   -1.0395986   -1.0395986  -0.88132549 -0.004658562   -1.0395986    0.1582731    89322 
28700000  0.026619391   -1.0352769   -1.0352769  -0.87718214 -0.00084986277   -1.0352769   0.15809478    89237 
28710000  0.026556545   -1.0308473   -1.0308473   -0.8729807 -0.0024340589   -1.0308473    0.1578666    89155 
28720000  0.026387718   -1.0291301   -1.0291301  -0.87211741 -0.00074662961   -1.0291301    0.1570127    89070 
28730000  0.026140613   -1.0260342   -1.0260342  -0.87037471 -0.0065944992   -1.0260342   0.15565946    89003 
28740000  0.026239434   -1.0221959   -1.0221959   -0.8658373 -0.0041966365   -1.0221959   0.15635859    88940 
28750000  0.026420573   -1.0208602   -1.0208602  -0.86328934 -0.007190482   -1.0208602   0.15757085    88865 
28760000  0.025898412   -1.0159877   -1.0159877  -0.86140049 -0.0025508117   -1.0159877   0.15458718    88790 
28770000  0.026111153   -1.0145055   -1.0145055  -0.85853429 -0.0040384577   -1.0145055   0.15597121    88725 
28780000  0.025442619    -1.010491    -1.010491  -0.85838975 -0.0029975387    -1.010491   0.15210125    88653 
28790000   0.02575819   -1.0094834   -1.0094834  -0.85534433 -0.008560203   -1.0094834   0.15413906    88566 
28800000  0.025440545   -1.0046126   -1.0046126  -0.85225567 -0.005295363   -1.0046126   0.15235694    88497 
28810000  0.025381949    -1.002155    -1.002155  -0.85002174 -0.0049830495    -1.002155   0.15213324    88423 
28820000  0.025354601   -0.9973251   -0.9973251  -0.84525086 -0.0071499947   -0.9973251   0.15207424    88362 
28830000  0.025267826  -0.99906288  -0.99906288   -0.8473838 -0.0022160426  -0.99906288   0.15167907    88289 
28840000  0.025332468  -0.99606423  -0.99606423  -0.84386783 -0.00040806382  -0.99606423    0.1521964    88214 
28850000  0.024829614   -0.9936451   -0.9936451  -0.84432595 -0.00014948943   -0.9936451   0.14931915    88129 
28860000  0.024776666  -0.99065403  -0.99065403  -0.84154162 -0.0028744956  -0.99065403   0.14911241    88063 
28870000  0.024468998  -0.98446445  -0.98446445  -0.83708317 -0.0031517037  -0.98446445   0.14738128    87991 
28880000  0.024556395  -0.98272885  -0.98272885  -0.83467983 -0.0032953381  -0.98272885   0.14804902    87907 
28890000  0.024577318  -0.97855507  -0.97855507  -0.83026688 -0.0033642717  -0.97855507   0.14828819    87840 
28900000  0.024215091  -0.97580501  -0.97580501  -0.82961412 -0.0032616029  -0.97580501   0.14619089    87787 
28910000  0.024063769  -0.97436987  -0.97436987  -0.82894345 -0.0014384351  -0.97436987   0.14542642    87697 
28920000  0.023901138   -0.9754066   -0.9754066  -0.83084268 -0.0018139037   -0.9754066   0.14456391    87624 
28930000  0.024179421  -0.97101851  -0.97101851  -0.82468291 -0.0064053612  -0.97101851    0.1463356    87571 
28940000  0.023418942   -0.9685144   -0.9685144  -0.82666789 0.00094072531   -0.9685144   0.14184651    87501 
28950000  0.023699515  -0.96339574  -0.96339574  -0.81976283 -0.0046792594  -0.96339574   0.14363291    87448 
28960000  0.023540337  -0.96000409  -0.96000409  -0.81725426 -0.0053963285  -0.96000409   0.14274982    87398 
28970000  0.023561365  -0.95968419  -0.95968419  -0.81669887 -0.0044998739  -0.95968419   0.14298532    87332 
28980000  0.023208841  -0.95561278  -0.95561278  -0.81466351 -0.0027221933  -0.95561278   0.14094927    87268 
28990000  0.023594817  -0.95335799  -0.95335799  -0.80996443 -0.0049017262  -0.95335799   0.14339357    87207 
29000000  0.023401181  -0.94963615  -0.94963615  -0.80734432 -0.00077861092  -0.94963615   0.14229183    87161 
29010000  0.023288529   -0.9470214   -0.9470214  -0.80532351 -0.0034545493   -0.9470214   0.14169788    87105 
29020000  0.023384968  -0.94463808  -0.94463808  -0.80223898 -0.0018820391  -0.94463808    0.1423991    87035 
29030000  0.023083725  -0.94381364  -0.94381364  -0.80315679 -0.0034078594  -0.94381364   0.14065685    86978 
29040000   0.02283142  -0.94039984  -0.94039984  -0.80117634 -0.0031264906  -0.94039984   0.13922351    86913 
29050000  0.022863083  -0.93713702  -0.93713702  -0.79761769 -0.0033840354  -0.93713702   0.13951933    86849 
29060000   0.02270544  -0.93455688  -0.93455688  -0.79590376 -0.0056087772  -0.93455688   0.13865312    86789 
29070000  0.022451706  -0.93250073  -0.93250073  -0.79531013 -0.0049649391  -0.93250073    0.1371906    86734 
29080000  0.022550327  -0.92731843  -0.92731843  -0.78943141 -0.0052913175  -0.92731843   0.13788702    86675 
29090000  0.022284017  -0.92470119  -0.92470119  -0.78834344 -0.0042681509  -0.92470119   0.13635775    86612 
29100000  0.022204798  -0.92447562  -0.92447562  -0.78851629 -0.001652906  -0.92447562   0.13595933    86557 
29110000  0.022358866  -0.92463817  -0.92463817  -0.78762784 -0.0020245747  -0.92463817   0.13701033    86489 
29120000  0.022064918   -0.9208132   -0.9208132  -0.78552122 -0.005464163   -0.9208132   0.13529198    86436 
29130000  0.021864408  -0.92144622  -0.92144622  -0.78731384 -0.0017049365  -0.92144622   0.13413238    86391 
29140000  0.021657458    -0.917037    -0.917037  -0.78409727 -0.0035924619    -0.917037   0.13293973    86341 
29150000  0.021777979  -0.91540664  -0.91540664  -0.78165121 -0.0024165557  -0.91540664   0.13375543    86292 
29160000   0.02189942  -0.91469474  -0.91469474  -0.78011546 -0.0078252867  -0.91469474   0.13457928    86242 
29170000  0.021616955  -0.91186822  -0.91186822  -0.77894001 -0.0057143543  -0.91186822   0.13292821    86187 
29180000  0.021605027  -0.91026291  -0.91026291  -0.77734174 -0.007235494  -0.91026291   0.13292117    86144 
29190000  0.021674079  -0.90813993  -0.90813993  -0.77470563 -0.0043899752  -0.90813993    0.1334343    86087 
29200000   0.02172206  -0.90782211  -0.90782211  -0.77403181 -0.002700701  -0.90782211    0.1337903    86048 
29210000  0.021438653  -0.90120167  -0.90120167  -0.76907709 -0.0058629263  -0.90120167   0.13212459    85996 
29220000  0.021249285  -0.89911274  -0.89911274  -0.76808207 -0.0022629477  -0.89911274   0.13103066    85948 
29230000  0.021073894  -0.89769826  -0.89769826  -0.76768559 -0.0030833238  -0.89769826   0.13001267    85906 
29240000  0.021115554  -0.89379263  -0.89379263  -0.76343948 -0.0052397041  -0.89379263   0.13035315    85851 
29250000  0.021254238  -0.89297445  -0.89297445  -0.76169941 -0.0065211853  -0.89297445   0.13127504    85808 
29260000  0.020894551  -0.88946338  -0.88946338  -0.76033468 -0.0015050591  -0.88946338   0.12912871    85758 
29270000  0.020905444  -0.88728253  -0.88728253  -0.75801415 -0.0057397997  -0.88728253   0.12926838    85710 
29280000  0.020959613   -0.8863928   -0.8863928  -0.75671079 -0.0042486587   -0.8863928   0.12968201    85658 
29290000  0.021017643  -0.88404717  -0.88404717   -0.7539332 -0.0021622287  -0.88404717   0.13011397    85610 
29300000  0.020557337  -0.88226094  -0.88226094   -0.7549118 0.0024870025  -0.88226094   0.12734914    85553 
29310000  0.020577818  -0.87941751  -0.87941751   -0.7518744 -0.0077314018  -0.87941751    0.1275431    85508 
29320000  0.020659774   -0.8777353   -0.8777353   -0.7496198 -0.0037071881   -0.8777353    0.1281155    85465 
29330000  0.020330654  -0.87220328  -0.87220328  -0.74605935 -0.0048005415  -0.87220328   0.12614392    85418 
29340000  0.020309021  -0.87051941  -0.87051941   -0.7444359 -0.0026117356  -0.87051941   0.12608351    85368 
29350000  0.020421889  -0.86870677  -0.86870677  -0.74185717 -0.0060147979  -0.86870677    0.1268496    85324 
29360000  0.020253637  -0.86897237  -0.86897237  -0.74309114 0.0016813181  -0.86897237   0.12588123    85272 
29370000   0.02028937  -0.86755925  -0.86755925  -0.74138639 -0.0047951143  -0.86755925   0.12617286    85225 
29380000  0.020156293  -0.86514907  -0.86514907   -0.7397243 -0.0026796165  -0.86514907   0.12542477    85171 
29390000  0.020129668  -0.86309831  -0.86309831   -0.7377995 -0.0038044936  -0.86309831   0.12529881    85144 
29400000  0.019862219  -0.86191402  -0.86191402  -0.73821023 -0.0081217878  -0.86191402   0.12370379    85096 
29410000  0.019557604  -0.85902145  -0.85902145  -0.73714608 -0.003439369  -0.85902145   0.12187537    85048 
29420000  0.020028332   -0.8590818   -0.8590818  -0.73422018 -0.00098311631   -0.8590818   0.12486162    85012 
29430000  0.019778773  -0.85319525  -0.85319525  -0.72981253 -0.0063295477  -0.85319525   0.12338272    84959 
29440000  0.019578913  -0.85117522  -0.85117522  -0.72898029 -0.0032007885  -0.85117522   0.12219494    84918 
29450000  0.019692224  -0.84963179  -0.84963179  -0.72666594 -0.0037241426  -0.84963179   0.12296585    84874 
29460000  0.019437455  -0.84786538  -0.84786538  -0.72643891 -0.001498029  -0.84786538   0.12142647    84838 
29470000  0.019673888  -0.84586325  -0.84586325    -0.722896 -0.0045076319  -0.84586325   0.12296725    84794 
29480000  0.019201627  -0.84580502  -0.84580502  -0.72572581 -0.0020805662  -0.84580502   0.12007922    84749 
29490000  0.019408095  -0.84182877  -0.84182877  -0.72040107 -0.0020323022  -0.84182877    0.1214277    84709 
29500000  0.019143019  -0.84001282  -0.84001282  -0.72017285 -0.0021840083  -0.84001282   0.11983997    84659 
29510000  0.018901575  -0.84140275  -0.84140275  -0.72301134 -0.0051074162  -0.84140275   0.11839141    84614 
29520000   0.01904773  -0.83887035  -0.83887035  -0.71952117 -0.0043872049  -0.83887035   0.11934917    84584 
29530000   0.01904567  -0.83820695  -0.83820695  -0.71881564 -0.0054700369  -0.83820695   0.11939131    84545 
29540000  0.019008062  -0.83696306  -0.83696306   -0.7177384 -0.0046066056  -0.83696306   0.11922466    84496 
29550000  0.018918688  -0.83813475  -0.83813475  -0.71941447 -0.0047681678  -0.83813475   0.11872028    84456 
29560000  0.018669558  -0.83467639  -0.83467639  -0.71747091 -0.0039110326  -0.83467639   0.11720549    84421 
29570000  0.018809279  -0.83384029  -0.83384029  -0.71569328 -0.003572777  -0.83384029   0.11814702    84375 
29580000    0.0186288  -0.83209706  -0.83209706  -0.71503096 0.0012333158  -0.83209706   0.11706609    84337 
29590000  0.018729186    -0.830256    -0.830256  -0.71251021 3.4964828e-05    -0.830256    0.1177458    84302 
29600000  0.018676447  -0.82580906  -0.82580906  -0.70834048 -0.0062495464  -0.82580906   0.11746858    84263 
29610000  0.018548245  -0.82794738  -0.82794738  -0.71124498 -0.00046236681  -0.82794738    0.1167024    84234 
29620000  0.018393266  -0.82303347  -0.82303347  -0.70725668 -0.0025218905  -0.82303347   0.11577678    84198 
29630000  0.018326613  -0.82120562  -0.82120562  -0.70579493 -0.0050561229  -0.82120562   0.11541069    84159 
29640000  0.018204474  -0.81871331  -0.81871331  -0.70400637 -0.00041917567  -0.81871331   0.11470695    84111 
29650000  0.018379683  -0.81830668  -0.81830668  -0.70243926 -0.0023159976  -0.81830668   0.11586743    84070 
29660000  0.018324983  -0.81570418  -0.81570418  -0.70012935 -0.0019122088  -0.81570418   0.11557483    84032 
29670000  0.018110671  -0.81521882  -0.81521882  -0.70094668 -0.0020949826  -0.81521882   0.11427213    83996 
29680000  0.017993717  -0.81467246  -0.81467246    -0.701095 -0.0022832619  -0.81467246   0.11357746    83964 
29690000  0.018026097   -0.8139958   -0.8139958  -0.70017193 -0.001954168   -0.8139958   0.11382387    83933 
29700000  0.018131118   -0.8098227   -0.8098227  -0.69527973 -0.0036479635   -0.8098227   0.11454297    83892 
29710000  0.017999258  -0.80844806  -0.80844806  -0.69469201 -0.0022565322  -0.80844806   0.11375605    83858 
29720000  0.017600765  -0.80706419  -0.80706419  -0.69577753 -6.5516485e-05  -0.80706419   0.11128666    83821 
29730000  0.017848205   -0.8048684   -0.8048684  -0.69197008 -0.0040598701   -0.8048684   0.11289832    83786 
29740000  0.017818976  -0.80382382  -0.80382382  -0.69107002 -0.0037161309  -0.80382382   0.11275381    83756 
29750000  0.017737989   -0.8042772   -0.8042772  -0.69199698 -0.0023205516   -0.8042772   0.11228022    83727 
29760000  0.017757744  -0.80274636  -0.80274636  -0.69028602 -0.00093991319  -0.80274636   0.11246034    83686 
29770000  0.017525662  -0.79686567  -0.79686567  -0.68583001 -0.0046742236  -0.79686567   0.11103566    83652 
29780000  0.017608652  -0.79460091  -0.79460091   -0.6829754 -0.0037952701  -0.79460091   0.11162551    83604 
29790000  0.017592931    -0.793781    -0.793781  -0.68220711 -0.0031210512    -0.793781   0.11157389    83568 
29800000   0.01753179  -0.79456499  -0.79456499  -0.68333626 -0.0038954287  -0.79456499   0.11122873    83536 
29810000  0.017513693  -0.79189161  -0.79189161   -0.6807218 -0.0043128999  -0.79189161   0.11116981    83494 
29820000  0.017079643  -0.79202621  -0.79202621  -0.68356611 -0.003689857  -0.79202621    0.1084601    83459 
29830000  0.017364622  -0.79282691  -0.79282691  -0.68251483 -0.0045223077  -0.79282691   0.11031209    83427 
29840000  0.017133033  -0.78960585  -0.78960585  -0.68072059 -0.0038655593  -0.78960585   0.10888525    83393 
29850000  0.016968588  -0.78997279  -0.78997279  -0.68210029 -0.0027530792  -0.78997279    0.1078725    83368 
29860000  0.016779136  -0.78478154  -0.78478154  -0.67806351 -0.0031245486  -0.78478154   0.10671803    83329 
29870000  0.017197256   -0.7873564   -0.7873564  -0.67794097 -0.0031116819   -0.7873564   0.10941543    83300 
29880000  0.016914833  -0.78659045  -0.78659045  -0.67892925 0.00018475003  -0.78659045    0.1076612    83267 
29890000  0.016736607  -0.78340748  -0.78340748  -0.67684996 0.0013868754  -0.78340748   0.10655752    83243 
29900000  0.016757973  -0.78113911  -0.78113911  -0.67440581 -0.0044888114  -0.78113911    0.1067333    83212 
29910000  0.016626226  -0.78087911  -0.78087911  -0.67494674 -0.0046415956  -0.78087911   0.10593238    83182 
29920000    0.0165634  -0.77902318  -0.77902318  -0.67345683 0.00093902503  -0.77902318   0.10556635    83155 
29930000  0.016629496  -0.78005729  -0.78005729   -0.6740225 -0.0088611871  -0.78005729   0.10603479    83118 
29940000  0.016479828  -0.77658839  -0.77658839  -0.67146746 -0.0044576289  -0.77658839   0.10512094    83086 
29950000  0.016687272  -0.77399396  -0.77399396  -0.66751518 -0.0079117966  -0.77399396   0.10647877    83059 
29960000  0.016708336  -0.77224988  -0.77224988   -0.6656046 -0.0019155989  -0.77224988   0.10664528    83034 
29970000  0.016452364  -0.76911699  -0.76911699   -0.6640701 -0.00027482361  -0.76911699   0.10504689    83006 
29980000  0.016586825  -0.76843504  -0.76843504  -0.66250028 -0.0025161488  -0.76843504   0.10593477    82983 
29990000  0.016563874  -0.76606451  -0.76606451  -0.66024444 -0.0036952167  -0.76606451   0.10582007    82958 
30000000  0.016307679  -0.76652555  -0.76652555  -0.66230075  0.002451339  -0.76652555    0.1042248    82925 
Loop time of 65115.4 on 336 procs for 30000000 steps with 82925 atoms

Performance: 199031.193 tau/day, 460.720 timesteps/s
88.7% CPU use with 336 MPI tasks x 1 OpenMP threads

MPI task timing breakdown:
Section |  min time  |  avg time  |  max time  |%varavg|  %CPU | %total
-----------------------------------------------------------------------
Pair    | 583.25     | 6965.2     | 12329      |3176.5 |  92.6 | 10.70
Bond    | 18.66      | 20.242     | 23.611     |  16.0 | 100.0 |  0.03
Neigh   | 1794.1     | 10847      | 17896      |3581.2 |  98.3 | 16.66
Comm    | 19931      | 28450      | 45883      |3155.0 |  87.0 | 43.69
Output  | 3153       | 3550.3     | 4064.6     | 357.3 |  81.5 |  5.45
Modify  | 7745.4     | 14731      | 31743      |3808.6 |  86.8 | 22.62
Other   |            | 552        |            |       |       |  0.85

Nlocal:        246.801 ave        1449 max           0 min
Histogram: 74 138 107 12 2 0 1 1 0 1
Nghost:        4862.43 ave        8424 max         717 min
Histogram: 9 15 23 37 51 65 50 58 22 6
Neighs:        2723.25 ave       10481 max           0 min
Histogram: 84 64 62 46 36 23 11 5 2 3
FullNghs:      5446.51 ave       23456 max           0 min
Histogram: 95 70 70 39 35 15 5 6 0 1

Total # of neighbors = 1830026
Ave neighs/atom = 22.068447
Ave special neighs/atom = 0.0000000
Neighbor list builds = 3055440
Dangerous builds = 1588239
Total wall time: 18:05:21
