LAMMPS (3 Mar 2020)
  using 1 OpenMP thread(s) per MPI task
# Simple rigid body system


units		lj
atom_style	full
dimension 	3
boundary	p p f
pair_style	lj/cut 4.4

variable 	sigma		equal 1.0
variable 	epsilon 	equal 1.0


region		box block 0 40 0 40 0 40
create_box 	3 box
Created orthogonal box = (0 0 0) to (40 40 40)
  1 by 2 by 2 MPI processor grid


create_atoms 	3 random 15000 15345 NULL
Created 15000 atoms
  create_atoms CPU = 0.0040046 secs

mass		3 1.0

region		cubespace block 10 30 10 30 10 30

delete_atoms 	region cubespace
WARNING: Ignoring 'compress yes' for molecular system (src/delete_atoms.cpp:125)
Deleted 1941 atoms, new total = 13059

read_data	data.rigid add append
Reading data file ...
  orthogonal box = (0 0 0) to (40 40 40)
  1 by 2 by 2 MPI processor grid
  reading atoms ...
  1143 atoms
Finding 1-2 1-3 1-4 neighbors ...
  special bond factors lj:   0          0          0         
  special bond factors coul: 0          0          0         
  0 = max # of 1-2 neighbors
  0 = max # of 1-3 neighbors
  0 = max # of 1-4 neighbors
  1 = max # of special neighbors
  special bonds CPU = 0.0141335 secs
  read_data CPU = 0.0239015 secs


group 		cube type 1 2
1143 atoms in group cube

group		solvent type 3
13059 atoms in group solvent


replicate 	2 2 2
Replicating atoms ...
WARNING: Replicating in a non-periodic dimension (src/replicate.cpp:72)
  orthogonal box = (0 0 0) to (80 80 80)
  1 by 2 by 2 MPI processor grid
  113616 atoms
Finding 1-2 1-3 1-4 neighbors ...
  special bond factors lj:   0          0          0         
  special bond factors coul: 0          0          0         
  0 = max # of 1-2 neighbors
  0 = max # of 1-3 neighbors
  0 = max # of 1-4 neighbors
  1 = max # of special neighbors
  special bonds CPU = 0.0110582 secs
  replicate CPU = 0.0288718 secs

read_data	data.vac add append
Reading data file ...
  orthogonal box = (0 0 0) to (80 80 160)
  1 by 1 by 4 MPI processor grid
Finding 1-2 1-3 1-4 neighbors ...
  special bond factors lj:   0          0          0         
  special bond factors coul: 0          0          0         
  0 = max # of 1-2 neighbors
  0 = max # of 1-3 neighbors
  0 = max # of 1-4 neighbors
  1 = max # of special neighbors
  special bonds CPU = 0.0078742 secs
  read_data CPU = 0.0367962 secs

neighbor 	0.4 bin

neigh_modify 	exclude molecule/intra cube



pair_modify 	shift yes
pair_coeff	1 1 0.6 1.0 2.2 #np
pair_coeff 	2 2 0.0 0.0 0.0 #dummy
pair_coeff	1 2 0.0 0.0 0.0 #np dummy
pair_coeff	3 3 1.0 1.0 4.4 #solvent
pair_coeff	1 3 0.8 1.0 4.4 #np solvent
pair_coeff 	2 3 0.0 0.0 0.0 #dummy solvent


reset_ids
Resetting atom IDs ...
Neighbor list info ...
  update every 1 steps, delay 10 steps, check yes
  max neighbors/atom: 2000, page size: 100000
  master list distance cutoff = 4.8
  ghost atom cutoff = 4.8
  binsize = 2.4, bins = 34 34 67
  1 neighbor lists, perpetual/occasional/extra = 1 0 0
  (1) pair lj/cut, perpetual
      attributes: half, newton on
      pair build: half/bin/newton
      stencil: half/bin/3d/newton
      bin: standard
Finding 1-2 1-3 1-4 neighbors ...
  special bond factors lj:   0          0          0         
  special bond factors coul: 0          0          0         
  0 = max # of 1-2 neighbors
  0 = max # of 1-3 neighbors
  0 = max # of 1-4 neighbors
  1 = max # of special neighbors
  special bonds CPU = 0.011712 secs
velocity 	solvent create 1.0 565153


comm_modify	cutoff 8.7

#delete_atoms 	overlap 4.4 solvent cube

delete_atoms 	overlap 1 solvent solvent compress yes
System init for delete_atoms ...
Neighbor list info ...
  update every 1 steps, delay 10 steps, check yes
  max neighbors/atom: 2000, page size: 100000
  master list distance cutoff = 4.8
  ghost atom cutoff = 8.7
  binsize = 2.4, bins = 34 34 67
  2 neighbor lists, perpetual/occasional/extra = 1 1 0
  (1) command delete_atoms, occasional
      attributes: full, newton on
      pair build: full/bin
      stencil: full/bin/3d
      bin: standard
  (2) pair lj/cut, perpetual
      attributes: half, newton on
      pair build: half/bin/newton
      stencil: half/bin/3d/newton
      bin: standard
WARNING: Delete_atoms cutoff > minimum neighbor cutoff (src/delete_atoms.cpp:338)
WARNING: Ignoring 'compress yes' for molecular system (src/delete_atoms.cpp:125)
Deleted 37746 atoms, new total = 75870


balance 	1.05 shift z 10 1.05
Balancing ...
Neighbor list info ...
  update every 1 steps, delay 10 steps, check yes
  max neighbors/atom: 2000, page size: 100000
  master list distance cutoff = 4.8
  ghost atom cutoff = 8.7
  binsize = 2.4, bins = 34 34 67
  1 neighbor lists, perpetual/occasional/extra = 1 0 0
  (1) pair lj/cut, perpetual
      attributes: half, newton on
      pair build: half/bin/newton
      stencil: half/bin/3d/newton
      bin: standard
  rebalancing time: 0.0246304 seconds
  iteration count = 6
  initial/final max load/proc = 38027 20095
  initial/final imbalance factor = 2.00485 1.05944
  x cuts: 0 1
  y cuts: 0 1
  z cuts: 0 0.128906 0.253906 0.382812 1

####################### WALLS ###########################

region	       low block  EDGE EDGE EDGE EDGE 0 1
region 	       top block  EDGE EDGE EDGE EDGE 159 160

delete_atoms   region low compress yes
WARNING: Ignoring 'compress yes' for molecular system (src/delete_atoms.cpp:125)
Deleted 1038 atoms, new total = 74832

variable       epsilonWall equal 2*${epsilon}
variable       epsilonWall equal 2*1

variable       cutoffTop   equal   0.7147*${sigma}
variable       cutoffTop   equal   0.7147*1

variable       cutoffLow   equal   3*${sigma}
variable       cutoffLow   equal   3*1

fix            topWall all wall/lj93 zhi EDGE                ${epsilonWall} ${sigma} ${cutoffTop} units box
fix            topWall all wall/lj93 zhi EDGE                2 ${sigma} ${cutoffTop} units box
fix            topWall all wall/lj93 zhi EDGE                2 1 ${cutoffTop} units box
fix            topWall all wall/lj93 zhi EDGE                2 1 0.7147 units box

fix            lowWall all wall/lj93 zlo EDGE                ${epsilonWall} ${sigma} ${cutoffLow} units box
fix            lowWall all wall/lj93 zlo EDGE                2 ${sigma} ${cutoffLow} units box
fix            lowWall all wall/lj93 zlo EDGE                2 1 ${cutoffLow} units box
fix            lowWall all wall/lj93 zlo EDGE                2 1 3 units box



######################	FIXES ############################

fix		1 cube rigid/nvt/small molecule temp 1.0 1.0 0.25
  create bodies CPU = 0.0019042 secs
8 rigid bodies with 9144 atoms
  6.9282 = max distance from body owner to body atom

fix 		2 solvent nvt temp 1.0 1.0 0.25# iso 0 0.0 2.5

fix 		bal all balance 1000 1.05 shift z 10 1.05



compute 	com cube	  rigid/local	1 mol x y z
compute 	quat cube	  rigid/local	1 mol quatw quati quatj quatk

thermo 		100
thermo_style 	custom step temp epair evdwl etotal press pe ke vol

dump		1 all custom 100000 dump.lammpstrj id mol type x y z
dump 		2 all image 100000 image.*.png type type
dump 		3 all movie 10000 movie.avi type type
#dump 		com cube local 1000 dump.*.xyz c_com[*]
#dump		quat cube      local 1000 dump.*.quat c_quat[*]


restart 	100000 restart.dat
timestep 	0.0025
timer 		full
New timer settings: style=full  mode=nosync  timeout=off


run		1000000
Setting up Verlet run ...
  Unit style    : lj
  Current step  : 0
  Time step     : 0.0025
Per MPI rank memory allocation (min/avg/max) = 44.41 | 62.11 | 76.13 Mbytes
Step Temp E_pair E_vdwl TotEng Press PotEng KinEng Volume 
       0    1.0000731  -0.70356805  -0.70356805   0.61353838  0.015695577  -0.70356805    1.3171064      1024000 
     100    1.0257128    -0.742849    -0.742849   0.60802507  0.031846312    -0.742849    1.3508741      1024000 
     200    1.0588997    -0.814933    -0.814933   0.57964856  0.038010841    -0.814933    1.3945816      1024000 
     300    1.0517302  -0.85119927  -0.85119927   0.53394002  0.034911254  -0.85119927    1.3851393      1024000 
     400    1.0339062  -0.87615511  -0.87615511   0.48550983  0.032233963  -0.87615511    1.3616649      1024000 
     500    1.0158027   -0.8942878   -0.8942878   0.44353457  0.030335462   -0.8942878    1.3378224      1024000 
     600    1.0043507  -0.91157759  -0.91157759   0.41116248  0.028654196  -0.91157759    1.3227401      1024000 
     700   0.99817783  -0.92639196  -0.92639196   0.38821832  0.028363988  -0.92639196    1.3146103      1024000 
     800   0.99802073  -0.94035108  -0.94035108    0.3740523  0.028637365  -0.94035108    1.3144034      1024000 
     900   0.99711055  -0.94754276  -0.94754276   0.36566191  0.028509468  -0.94754276    1.3132047      1024000 
    1000    0.9997948  -0.95645684  -0.95645684   0.36028301  0.028685244  -0.95645684    1.3167399      1024000 
    1100   0.99986385  -0.96353299  -0.96353299   0.35329779  0.027425229  -0.96353299    1.3168308      1024000 
    1200   0.99783543  -0.96702856  -0.96702856   0.34713079  0.026647001  -0.96702856    1.3141593      1024000 
    1300    1.0011297  -0.97470711  -0.97470711   0.34379086  0.025360416  -0.97470711     1.318498      1024000 
    1400    1.0022648  -0.98313606  -0.98313606   0.33685678  0.025868605  -0.98313606    1.3199928      1024000 
    1500   0.99888946  -0.98806508  -0.98806508   0.32748243  0.025969215  -0.98806508    1.3155475      1024000 
    1600      1.00008  -0.99646615  -0.99646615   0.32064932  0.025540911  -0.99646615    1.3171155      1024000 
    1700   0.99982282   -1.0015663   -1.0015663   0.31521045  0.027846489   -1.0015663    1.3167768      1024000 
    1800    1.0009292   -1.0071516   -1.0071516   0.31108227  0.028428096   -1.0071516    1.3182339      1024000 
    1900    1.0014337   -1.0114517   -1.0114517   0.30744657  0.028502348   -1.0114517    1.3188983      1024000 
    2000   0.99918488   -1.0125367   -1.0125367    0.3033999  0.027516678   -1.0125367    1.3159366      1024000 
    2100    1.0000927    -1.015755    -1.015755   0.30137726  0.027316663    -1.015755    1.3171322      1024000 
    2200    1.0004675   -1.0182764   -1.0182764   0.29934942  0.027448719   -1.0182764    1.3176258      1024000 
    2300   0.99797828   -1.0191767   -1.0191767   0.29517082  0.028520095   -1.0191767    1.3143475      1024000 
    2400   0.99951032   -1.0238819   -1.0238819   0.29248328  0.028007781   -1.0238819    1.3163652      1024000 
    2500    0.9999332   -1.0237732   -1.0237732   0.29314889  0.026971143   -1.0237732    1.3169221      1024000 
    2600    1.0013154   -1.0254956   -1.0254956   0.29324694  0.025498486   -1.0254956    1.3187425      1024000 
    2700    1.0007332   -1.0295985   -1.0295985   0.28837725  0.026834553   -1.0295985    1.3179758      1024000 
    2800   0.99591235   -1.0295982   -1.0295982   0.28202839  0.028083572   -1.0295982    1.3116266      1024000 
    2900     1.000244   -1.0335708   -1.0335708   0.28376055  0.026475342   -1.0335708    1.3173314      1024000 
    3000    1.0037977   -1.0356566   -1.0356566   0.28635509   0.02857993   -1.0356566    1.3220117      1024000 
    3100    0.9987142   -1.0345375   -1.0345375   0.28077921  0.027598705   -1.0345375    1.3153167      1024000 
    3200   0.99738346   -1.0376756   -1.0376756   0.27588854  0.025949392   -1.0376756    1.3135641      1024000 
    3300   0.99878997   -1.0392338   -1.0392338   0.27618265  0.030400182   -1.0392338    1.3154165      1024000 
    3400    1.0021226   -1.0408197   -1.0408197   0.27898583  0.027114492   -1.0408197    1.3198055      1024000 
    3500    1.0018698   -1.0431458   -1.0431458   0.27632682  0.026390487   -1.0431458    1.3194727      1024000 
    3600   0.99917371    -1.047205    -1.047205   0.26871685  0.026703141    -1.047205    1.3159219      1024000 
    3700    1.0005499   -1.0520956   -1.0520956   0.26563872  0.025476081   -1.0520956    1.3177343      1024000 
    3800     1.001747   -1.0535231   -1.0535231   0.26578788  0.027706284   -1.0535231    1.3193109      1024000 
    3900     1.002622   -1.0553334   -1.0553334   0.26512989  0.027577079   -1.0553334    1.3204633      1024000 
    4000   0.99839138   -1.0553208   -1.0553208   0.25957073  0.024876597   -1.0553208    1.3148915      1024000 
    4100   0.99834627   -1.0595882   -1.0595882   0.25524388  0.025658648   -1.0595882    1.3148321      1024000 
    4200    1.0008601   -1.0616087   -1.0616087   0.25653416  0.026382995   -1.0616087    1.3181428      1024000 
    4300    1.0038499   -1.0600053   -1.0600053   0.26207516  0.030160636   -1.0600053    1.3220805      1024000 
    4400    1.0012218   -1.0600818   -1.0600818   0.25853747  0.027483737   -1.0600818    1.3186192      1024000 
    4500   0.99588326    -1.061536    -1.061536    0.2500523  0.026073237    -1.061536    1.3115883      1024000 
    4600   0.99810774   -1.0625009   -1.0625009   0.25201703  0.027697016   -1.0625009     1.314518      1024000 
    4700     1.002078   -1.0647572   -1.0647572    0.2549897  0.030684542   -1.0647572    1.3197469      1024000 
    4800   0.99944888   -1.0674749   -1.0674749   0.24880936  0.027598889   -1.0674749    1.3162843      1024000 
    4900   0.99444847    -1.068726    -1.068726   0.24097272  0.027687423    -1.068726    1.3096987      1024000 
    5000    1.0020022   -1.0731882   -1.0731882   0.24645876  0.028030029   -1.0731882     1.319647      1024000 
    5100    1.0041475   -1.0739833   -1.0739833   0.24848909  0.026556786   -1.0739833    1.3224724      1024000 
    5200    0.9965619   -1.0742148   -1.0742148   0.23826731  0.026089044   -1.0742148    1.3124821      1024000 
    5300   0.99473897   -1.0733546   -1.0733546   0.23672664  0.027033878   -1.0733546    1.3100813      1024000 
    5400   0.99822628   -1.0734325   -1.0734325   0.24124164  0.028390891   -1.0734325    1.3146741      1024000 
    5500    1.0029437    -1.075686    -1.075686   0.24520097  0.027817538    -1.075686     1.320887      1024000 
    5600    1.0027033   -1.0759042   -1.0759042   0.24466613  0.027641736   -1.0759042    1.3205703      1024000 
    5700   0.99410458   -1.0741118   -1.0741118   0.23513399  0.028470919   -1.0741118    1.3092458      1024000 
    5800   0.99565885   -1.0787172   -1.0787172   0.23257557  0.026908374   -1.0787172    1.3112928      1024000 
    5900    1.0011198   -1.0787058   -1.0787058   0.23977904  0.025710858   -1.0787058    1.3184849      1024000 
    6000    1.0018671   -1.0769959   -1.0769959   0.24247313  0.028022847   -1.0769959    1.3194691      1024000 
    6100    1.0023744   -1.0794017   -1.0794017   0.24073556  0.028265403   -1.0794017    1.3201372      1024000 
    6200   0.99968422   -1.0822915   -1.0822915   0.23430271  0.027402033   -1.0822915    1.3165942      1024000 
    6300   0.99755367   -1.0836369   -1.0836369   0.23015133  0.026406178   -1.0836369    1.3137883      1024000 
    6400   0.99842733   -1.0843164   -1.0843164   0.23062248  0.027872605   -1.0843164    1.3149389      1024000 
    6500    1.0009302   -1.0860702   -1.0860702   0.23216495  0.028548623   -1.0860702    1.3182351      1024000 
    6600    1.0016142   -1.0895477   -1.0895477   0.22958832  0.026107295   -1.0895477     1.319136      1024000 
    6700   0.99339498   -1.0930997   -1.0930997   0.21521149  0.026127221   -1.0930997    1.3083112      1024000 
    6800   0.99730684   -1.0942624   -1.0942624   0.21920074   0.02752679   -1.0942624    1.3134632      1024000 
    6900     1.002504    -1.093929    -1.093929    0.2263789  0.028765694    -1.093929    1.3203079      1024000 
    7000    1.0016502   -1.0925203   -1.0925203   0.22666315  0.027576904   -1.0925203    1.3191835      1024000 
    7100   0.99563875   -1.0885878   -1.0885878   0.22267848   0.02896632   -1.0885878    1.3112663      1024000 
    7200   0.99408048   -1.0887782   -1.0887782   0.22043583  0.028504574   -1.0887782     1.309214      1024000 
    7300    1.0007152   -1.0877279   -1.0877279   0.23022415  0.029262675   -1.0877279     1.317952      1024000 
    7400    1.0053404   -1.0893658   -1.0893658   0.23467765  0.027115755   -1.0893658    1.3240435      1024000 
    7500    1.0011013   -1.0905119   -1.0905119   0.22794863  0.026110769   -1.0905119    1.3184606      1024000 
    7600    0.9978794   -1.0910739   -1.0910739   0.22314332    0.0272614   -1.0910739    1.3142173      1024000 
    7700   0.99995251   -1.0919535   -1.0919535   0.22499405  0.029071056   -1.0919535    1.3169476      1024000 
    7800    1.0001082   -1.0906566   -1.0906566   0.22649591  0.028628826   -1.0906566    1.3171525      1024000 
    7900     1.000435   -1.0945176   -1.0945176    0.2230654  0.026262841   -1.0945176     1.317583      1024000 
    8000   0.99567709   -1.0981584   -1.0981584   0.21315835  0.027096346   -1.0981584    1.3113168      1024000 
    8100   0.99818716   -1.0988133   -1.0988133   0.21580929  0.027984126   -1.0988133    1.3146226      1024000 
    8200    1.0039232   -1.0995659   -1.0995659   0.22261111  0.027993222   -1.0995659     1.322177      1024000 
    8300    1.0034786    -1.103397    -1.103397   0.21819444  0.024706161    -1.103397    1.3215914      1024000 
    8400   0.99659131   -1.1029917   -1.1029917   0.20952917  0.026654091   -1.1029917    1.3125208      1024000 
    8500   0.99979753   -1.1053753   -1.1053753   0.21136812  0.030079911   -1.1053753    1.3167435      1024000 
    8600    1.0006771   -1.1052339   -1.1052339   0.21266793   0.03027642   -1.1052339    1.3179018      1024000 
    8700    0.9996686   -1.1081617   -1.1081617    0.2084119  0.027667495   -1.1081617    1.3165736      1024000 
    8800    0.9970658   -1.1122707   -1.1122707   0.20087504  0.023360333   -1.1122707    1.3131457      1024000 
    8900   0.99772666   -1.1104934   -1.1104934   0.20352268   0.02589701   -1.1104934    1.3140161      1024000 
    9000    1.0045084   -1.1105079   -1.1105079   0.21243979   0.03080526   -1.1105079    1.3229477      1024000 
    9100    1.0004119   -1.1062715   -1.1062715   0.21128116  0.032285666   -1.1062715    1.3175526      1024000 
    9200   0.99925473   -1.1083145   -1.1083145   0.20771405  0.022806351   -1.1083145    1.3160286      1024000 
    9300   0.99764544   -1.1072318   -1.1072318   0.20667736  0.022802428   -1.1072318    1.3139091      1024000 
    9400    1.0020136   -1.1046041   -1.1046041   0.21505784  0.028924043   -1.1046041     1.319662      1024000 
    9500    1.0047952   -1.1042233   -1.1042233   0.21910206  0.028186409   -1.1042233    1.3233254      1024000 
    9600   0.99901797   -1.1009726   -1.1009726   0.21474416  0.025667058   -1.1009726    1.3157168      1024000 
    9700   0.99797043   -1.1012662   -1.1012662   0.21307093  0.026716911   -1.1012662    1.3143371      1024000 
    9800    1.0007867   -1.1014297   -1.1014297   0.21661644  0.029173635   -1.1014297    1.3180462      1024000 
    9900    1.0060031   -1.1010457   -1.1010457   0.22387065  0.031660432   -1.1010457    1.3249163      1024000 
   10000    1.0018856   -1.1036595   -1.1036595   0.21583393  0.027662172   -1.1036595    1.3194934      1024000 
   10100   0.99743229    -1.105835    -1.105835   0.20779337  0.026542962    -1.105835    1.3136284      1024000 
   10200   0.99892771    -1.107215    -1.107215   0.20838293  0.027422587    -1.107215    1.3155979      1024000 
   10300    1.0033005   -1.1098088   -1.1098088   0.21154806  0.025424109   -1.1098088    1.3213569      1024000 
   10400    1.0033154   -1.1129237   -1.1129237   0.20845281  0.026799134   -1.1129237    1.3213765      1024000 
   10500   0.99523862   -1.1110588   -1.1110588   0.19968057  0.029827786   -1.1110588    1.3107393      1024000 
   10600   0.99700322   -1.1114178   -1.1114178   0.20164549  0.028484326   -1.1114178    1.3130633      1024000 
   10700    1.0022747   -1.1126711   -1.1126711   0.20733488  0.027165628   -1.1126711    1.3200059      1024000 
   10800    1.0024468   -1.1146236   -1.1146236   0.20560906  0.026486635   -1.1146236    1.3202326      1024000 
   10900   0.99347817    -1.116603    -1.116603   0.19181782  0.027239527    -1.116603    1.3084208      1024000 
   11000    0.9959119   -1.1162898   -1.1162898   0.19533626  0.028535485   -1.1162898     1.311626      1024000 
   11100    1.0028299   -1.1174226   -1.1174226   0.20331452  0.034550856   -1.1174226    1.3207371      1024000 
   11200    1.0002981   -1.1123577   -1.1123577   0.20504496   0.02538247   -1.1123577    1.3174027      1024000 
   11300   0.99819544   -1.1129942   -1.1129942   0.20163923  0.021815791   -1.1129942    1.3146335      1024000 
   11400   0.99420599   -1.1140271   -1.1140271    0.1953522  0.030337132   -1.1140271    1.3093793      1024000 
   11500   0.99752322   -1.1178411   -1.1178411   0.19590708  0.032694179   -1.1178411    1.3137482      1024000 
   11600    1.0057921   -1.1204352   -1.1204352   0.20420319  0.026752776   -1.1204352    1.3246384      1024000 
   11700    1.0031882   -1.1214396   -1.1214396   0.19976941  0.021711628   -1.1214396     1.321209      1024000 
   11800   0.99808442   -1.1223484   -1.1223484   0.19213889  0.028878497   -1.1223484    1.3144873      1024000 
   11900    1.0004039   -1.1267508   -1.1267508   0.19079116  0.031687595   -1.1267508     1.317542      1024000 
   12000   0.99903007   -1.1270839   -1.1270839   0.18864874  0.030883237   -1.1270839    1.3157327      1024000 
   12100   0.99539816   -1.1282556   -1.1282556    0.1826938  0.022554586   -1.1282556    1.3109494      1024000 
   12200   0.99549201   -1.1271646   -1.1271646   0.18390846  0.021914705   -1.1271646     1.311073      1024000 
   12300    1.0050469   -1.1289339   -1.1289339   0.19472306  0.028004508   -1.1289339    1.3236569      1024000 
   12400    1.0030742   -1.1299763   -1.1299763   0.19108256  0.036732516   -1.1299763    1.3210589      1024000 
   12500   0.99885648   -1.1313111   -1.1313111   0.18419297   0.02827317   -1.1313111    1.3155041      1024000 
   12600   0.99919432   -1.1323362   -1.1323362   0.18361278   0.02673838   -1.1323362     1.315949      1024000 
   12700    1.0036717   -1.1367149   -1.1367149   0.18513095  0.017899719   -1.1367149    1.3218458      1024000 
   12800    0.9979846   -1.1318224   -1.1318224   0.18253341  0.024875507   -1.1318224    1.3143558      1024000 
   12900   0.99606185   -1.1332574   -1.1332574   0.17856611  0.036522375   -1.1332574    1.3118235      1024000 
   13000   0.99857597   -1.1357054   -1.1357054   0.17942924  0.029524959   -1.1357054    1.3151346      1024000 
   13100     1.004643   -1.1383112   -1.1383112   0.18481381  0.023628554   -1.1383112     1.323125      1024000 
   13200     1.001472   -1.1358848   -1.1358848   0.18306402  0.024731008   -1.1358848    1.3189488      1024000 
   13300   0.99329724   -1.1338338   -1.1338338   0.17434866  0.022509377   -1.1338338    1.3081825      1024000 
   13400   0.99638312   -1.1357064   -1.1357064   0.17654027  0.023875021   -1.1357064    1.3122466      1024000 
   13500    1.0035312   -1.1354378   -1.1354378   0.18622294  0.033581698   -1.1354378    1.3216608      1024000 
   13600    1.0011855   -1.1336447   -1.1336447   0.18492675  0.032979877   -1.1336447    1.3185714      1024000 
   13700    0.9998945   -1.1381913   -1.1381913   0.17867983  0.026247014   -1.1381913    1.3168712      1024000 
   13800   0.99745192   -1.1386652   -1.1386652   0.17498903  0.024605016   -1.1386652    1.3136543      1024000 
   13900    1.0001173   -1.1389233   -1.1389233   0.17824126  0.029296753   -1.1389233    1.3171646      1024000 
   14000     1.007972    -1.138377    -1.138377   0.18913233  0.035876546    -1.138377    1.3275094      1024000 
   14100    1.0042962   -1.1381064   -1.1381064   0.18456183  0.025635918   -1.1381064    1.3226682      1024000 
   14200   0.99991765   -1.1377292   -1.1377292   0.17917241  0.018185227   -1.1377292    1.3169016      1024000 
   14300    0.9994069   -1.1392201   -1.1392201   0.17700888   0.02840651   -1.1392201     1.316229      1024000 
   14400   0.99960503   -1.1392522   -1.1392522   0.17723771  0.030176994   -1.1392522    1.3164899      1024000 
   14500   0.99959495   -1.1341929   -1.1341929   0.18228377  0.031991206   -1.1341929    1.3164767      1024000 
   14600    1.0041567   -1.1348169   -1.1348169   0.18766761  0.032467289   -1.1348169    1.3224845      1024000 
   14700   0.99685158   -1.1333177   -1.1333177   0.17954594  0.024029035   -1.1333177    1.3128636      1024000 
   14800   0.99411241   -1.1338547   -1.1338547   0.17540134  0.024493353   -1.1338547    1.3092561      1024000 
   14900   0.99783016   -1.1323704   -1.1323704   0.18178198  0.028444516   -1.1323704    1.3141524      1024000 
   15000    1.0013879   -1.1331997   -1.1331997   0.18563837  0.030845095   -1.1331997     1.318838      1024000 
   15100   0.99822847   -1.1296441   -1.1296441   0.18503289  0.038256212   -1.1296441     1.314677      1024000 
   15200   0.99980362   -1.1302776   -1.1302776   0.18647382  0.016595051   -1.1302776    1.3167515      1024000 
   15300     1.005993   -1.1290386   -1.1290386   0.19586432  0.025756835   -1.1290386     1.324903      1024000 
   15400     1.004201   -1.1289204   -1.1289204   0.19362253  0.029300732   -1.1289204    1.3225429      1024000 
   15500    1.0006192   -1.1320583   -1.1320583   0.18576737   0.02786079   -1.1320583    1.3178256      1024000 
   15600    1.0010162   -1.1344434   -1.1344434   0.18390503  0.021174915   -1.1344434    1.3183485      1024000 
   15700   0.99999477   -1.1345756   -1.1345756   0.18242761  0.026669685   -1.1345756    1.3170032      1024000 
   15800   0.99858663   -1.1323846   -1.1323846   0.18276407  0.036374116   -1.1323846    1.3151487      1024000 
   15900    1.0056181   -1.1329588   -1.1329588   0.19145035  0.027030732   -1.1329588    1.3244091      1024000 
   16000    1.0050061   -1.1341961   -1.1341961   0.18940709   0.02388671   -1.1341961    1.3236031      1024000 
   16100   0.99735707   -1.1336068   -1.1336068   0.17992258  0.029060616   -1.1336068    1.3135293      1024000 
   16200    0.9995686   -1.1365683   -1.1365683   0.17987364  0.040820846   -1.1365683    1.3164419      1024000 
   16300    1.0013803   -1.1355867   -1.1355867   0.18324127  0.023110457   -1.1355867     1.318828      1024000 
   16400    1.0015306   -1.1308377   -1.1308377    0.1881882  0.024305202   -1.1308377    1.3190259      1024000 
   16500    1.0059706   -1.1299864   -1.1299864   0.19488708  0.027253236   -1.1299864    1.3248735      1024000 
   16600    1.0041634    -1.135222    -1.135222   0.18727132  0.027086427    -1.135222    1.3224933      1024000 
   16700   0.99945992   -1.1373446   -1.1373446   0.17895422  0.027140941   -1.1373446    1.3162988      1024000 
   16800    0.9974847   -1.1375386   -1.1375386   0.17615887  0.029813583   -1.1375386    1.3136974      1024000 
   16900   0.99892535   -1.1384207   -1.1384207   0.17717408  0.030303546   -1.1384207    1.3155948      1024000 
   17000    1.0042584   -1.1410672   -1.1410672    0.1815513  0.025832128   -1.1410672    1.3226185      1024000 
   17100    1.0006702   -1.1368874   -1.1368874   0.18100542  0.028364074   -1.1368874    1.3178928      1024000 
   17200   0.99481629   -1.1382367   -1.1382367   0.17194636  0.026748539   -1.1382367    1.3101831      1024000 
   17300   0.99818513     -1.14349     -1.14349   0.17112992  0.026772011     -1.14349    1.3146199      1024000 
   17400     1.002849   -1.1422626   -1.1422626   0.17849962  0.032708071   -1.1422626    1.3207622      1024000 
   17500    1.0057253   -1.1419933   -1.1419933   0.18255698  0.028156603   -1.1419933    1.3245503      1024000 
   17600   0.99488107   -1.1420135   -1.1420135   0.16825492  0.019815289   -1.1420135    1.3102684      1024000 
   17700   0.99469102   -1.1395055   -1.1395055   0.17051258  0.029405319   -1.1395055    1.3100181      1024000 
   17800    1.0029828   -1.1423918   -1.1423918   0.17854662  0.032010576   -1.1423918    1.3209385      1024000 
   17900    1.0028292   -1.1425131   -1.1425131   0.17822302  0.028863398   -1.1425131    1.3207362      1024000 
   18000   0.99634139   -1.1414991   -1.1414991   0.17069254  0.025756891   -1.1414991    1.3121917      1024000 
   18100   0.99648167   -1.1427692   -1.1427692   0.16960727   0.02567796   -1.1427692    1.3123764      1024000 
   18200    1.0041173   -1.1438088   -1.1438088   0.17862384  0.029591179   -1.1438088    1.3224326      1024000 
   18300    1.0086847   -1.1436553   -1.1436553   0.18479271  0.036698644   -1.1436553     1.328448      1024000 
   18400    1.0017092   -1.1433476   -1.1433476   0.17591362  0.025290578   -1.1433476    1.3192612      1024000 
   18500    1.0011061   -1.1471698   -1.1471698   0.17129695  0.024490644   -1.1471698    1.3184668      1024000 
   18600   0.99750323   -1.1478582   -1.1478582   0.16586361  0.026653699   -1.1478582    1.3137218      1024000 
   18700    0.9972312   -1.1503275   -1.1503275   0.16303602  0.030487343   -1.1503275    1.3133636      1024000 
   18800    1.0013807   -1.1527242   -1.1527242   0.16610425  0.034052962   -1.1527242    1.3188285      1024000 
   18900    1.0032549   -1.1517085   -1.1517085   0.16958838  0.036149504   -1.1517085    1.3212969      1024000 
   19000   0.99955631   -1.1507846   -1.1507846    0.1656412  0.019406438   -1.1507846    1.3164258      1024000 
   19100   0.99482332   -1.1487798   -1.1487798   0.16141258  0.027518561   -1.1487798    1.3101924      1024000 
   19200    1.0002211   -1.1468872   -1.1468872   0.17041402  0.029540158   -1.1468872    1.3173012      1024000 
   19300    1.0032494   -1.1473932   -1.1473932   0.17389645  0.025396249   -1.1473932    1.3212896      1024000 
   19400    1.0000885    -1.146968    -1.146968   0.17015872  0.025167271    -1.146968    1.3171267      1024000 
   19500   0.99767004   -1.1476152   -1.1476152   0.16632637  0.030899137   -1.1476152    1.3139415      1024000 
   19600    0.9995296   -1.1511567   -1.1511567   0.16523393  0.035004526   -1.1511567    1.3163906      1024000 
   19700   0.99699756   -1.1498005   -1.1498005   0.16325537  0.024387719   -1.1498005    1.3130559      1024000 
   19800    0.9971712    -1.145839    -1.145839   0.16744552  0.024289183    -1.145839    1.3132846      1024000 
   19900    1.0040772   -1.1476145   -1.1476145   0.17476539  0.029895648   -1.1476145    1.3223799      1024000 
   20000    1.0006589   -1.1459408   -1.1459408   0.17193707  0.031025629   -1.1459408    1.3178779      1024000 
   20100   0.99627281   -1.1472012   -1.1472012   0.16490015  0.032658167   -1.1472012    1.3121014      1024000 
   20200   0.99784031   -1.1474552   -1.1474552   0.16671058  0.029829278   -1.1474552    1.3141658      1024000 
   20300    1.0046225   -1.1505357   -1.1505357    0.1725623  0.022887561   -1.1505357     1.323098      1024000 
   20400    1.0002622   -1.1480054   -1.1480054   0.16935004  0.028992483   -1.1480054    1.3173555      1024000 
   20500   0.98875878   -1.1489311   -1.1489311   0.15327422   0.02972713   -1.1489311    1.3022053      1024000 
   20600   0.99548324   -1.1510804   -1.1510804   0.15998108  0.032719091   -1.1510804    1.3110615      1024000 
   20700    1.0019947   -1.1509749   -1.1509749    0.1686622   0.02593867   -1.1509749    1.3196371      1024000 
   20800    1.0020805    -1.150465    -1.150465   0.16928519  0.026367726    -1.150465    1.3197502      1024000 
   20900   0.99729622   -1.1505586   -1.1505586   0.16289057  0.033315486   -1.1505586    1.3134492      1024000 
   21000   0.99535241   -1.1500773   -1.1500773   0.16081191  0.034929815   -1.1500773    1.3108892      1024000 
   21100    1.0004086   -1.1491857   -1.1491857   0.16836256  0.025864249   -1.1491857    1.3175482      1024000 
   21200    1.0027577   -1.1466465   -1.1466465   0.17399553  0.026794259   -1.1466465     1.320642      1024000 
   21300    1.0028218   -1.1496115   -1.1496115   0.17111496  0.028414062   -1.1496115    1.3207265      1024000 
   21400    1.0012064    -1.153255    -1.153255   0.16534396  0.023906154    -1.153255    1.3185989      1024000 
   21500   0.99923065    -1.155169    -1.155169   0.16082787  0.027010012    -1.155169    1.3159969      1024000 
   21600   0.99855062    -1.153475    -1.153475   0.16162622  0.034366419    -1.153475    1.3151013      1024000 
   21700    1.0031786   -1.1524225   -1.1524225   0.16877382  0.031737919   -1.1524225    1.3211963      1024000 
   21800    1.0091011   -1.1513574   -1.1513574   0.17763895  0.026029474   -1.1513574    1.3289964      1024000 
   21900   0.99689346   -1.1479794   -1.1479794   0.16493939  0.031004931   -1.1479794    1.3129188      1024000 
   22000   0.99744967   -1.1498907   -1.1498907   0.16376062  0.028646257   -1.1498907    1.3136513      1024000 
   22100    1.0016382   -1.1502213   -1.1502213   0.16894635  0.029150129   -1.1502213    1.3191676      1024000 
   22200    1.0038476   -1.1513071   -1.1513071   0.17077031  0.030002367   -1.1513071    1.3220774      1024000 
   22300   0.99825984   -1.1512091   -1.1512091   0.16350923  0.023992442   -1.1512091    1.3147183      1024000 
   22400   0.99610432   -1.1532301   -1.1532301   0.15864938  0.023200532   -1.1532301    1.3118795      1024000 
   22500    1.0005089    -1.154636    -1.154636   0.16304435  0.032928586    -1.154636    1.3176804      1024000 
   22600    1.0063177   -1.1537274   -1.1537274   0.17160315  0.038081282   -1.1537274    1.3253305      1024000 
   22700    1.0023365   -1.1503063   -1.1503063    0.1697811    0.0267202   -1.1503063    1.3200874      1024000 
   22800    0.9957653   -1.1521255   -1.1521255   0.15930751  0.021193531   -1.1521255     1.311433      1024000 
   22900   0.99840879    -1.152899    -1.152899   0.16201545  0.032685779    -1.152899    1.3149145      1024000 
   23000    1.0029145   -1.1524368   -1.1524368   0.16841173  0.035307532   -1.1524368    1.3208485      1024000 
   23100    1.0021881   -1.1535458   -1.1535458   0.16634603  0.031479557   -1.1535458    1.3198919      1024000 
   23200   0.99695899   -1.1555119   -1.1555119   0.15749315  0.020512769   -1.1555119    1.3130051      1024000 
   23300   0.99654385   -1.1561729   -1.1561729   0.15628544  0.027207049   -1.1561729    1.3124583      1024000 
   23400    1.0031029   -1.1604816   -1.1604816   0.16061513  0.031857185   -1.1604816    1.3210967      1024000 
   23500     1.000409   -1.1580127   -1.1580127   0.15953608  0.033430959   -1.1580127    1.3175488      1024000 
   23600   0.99839085   -1.1567479   -1.1567479   0.15814292  0.030715923   -1.1567479    1.3148908      1024000 
   23700   0.99924079   -1.1562751   -1.1562751   0.15973508  0.026119114   -1.1562751    1.3160102      1024000 
   23800    1.0060831   -1.1567019   -1.1567019    0.1683197  0.024135847   -1.1567019    1.3250216      1024000 
   23900     1.004719   -1.1563125   -1.1563125    0.1669126  0.026450746   -1.1563125    1.3232251      1024000 
   24000   0.99709632    -1.154875    -1.154875   0.15831097  0.032840563    -1.154875    1.3131859      1024000 
   24100   0.99808462   -1.1545415   -1.1545415   0.15994602  0.031943413   -1.1545415    1.3144875      1024000 
   24200    1.0011327   -1.1557814   -1.1557814   0.16272042   0.02774758   -1.1557814    1.3185018      1024000 
   24300    1.0026508   -1.1575133   -1.1575133   0.16298804  0.025359952   -1.1575133    1.3205013      1024000 
   24400   0.99688774   -1.1542365   -1.1542365   0.15867471  0.027367575   -1.1542365    1.3129112      1024000 
   24500   0.99087202    -1.151351    -1.151351   0.15363748  0.027930525    -1.151351    1.3049885      1024000 
   24600    1.0010272   -1.1544362   -1.1544362   0.16392672  0.030962185   -1.1544362     1.318363      1024000 
   24700    1.0037154   -1.1549406   -1.1549406   0.16696272  0.033743966   -1.1549406    1.3219034      1024000 
   24800   0.99971713   -1.1543711   -1.1543711   0.16226641  0.018785369   -1.1543711    1.3166376      1024000 
   24900   0.99789864   -1.1557327   -1.1557327   0.15850992  0.025847475   -1.1557327    1.3142426      1024000 
   25000    1.0005968   -1.1521258   -1.1521258   0.16567028   0.03514503   -1.1521258     1.317796      1024000 
   25100    1.0088414    -1.155319    -1.155319   0.17333524  0.034204903    -1.155319    1.3286543      1024000 
   25200    1.0026745   -1.1551264   -1.1551264   0.16540606  0.030221009   -1.1551264    1.3205325      1024000 
   25300   0.99678926   -1.1540479   -1.1540479   0.15873358  0.024362857   -1.1540479    1.3127815      1024000 
   25400    0.9973149   -1.1523218   -1.1523218   0.16115199  0.029136398   -1.1523218    1.3134738      1024000 
   25500    1.0020978   -1.1509849   -1.1509849   0.16878799  0.033040991   -1.1509849    1.3197729      1024000 
   25600    1.0025299    -1.150646    -1.150646   0.16969596  0.028836865    -1.150646     1.320342      1024000 
   25700    1.0002145   -1.1528095   -1.1528095    0.1644831  0.027338882   -1.1528095    1.3172926      1024000 
   25800   0.99833938    -1.152127    -1.152127   0.16269601  0.031925549    -1.152127     1.314823      1024000 
   25900   0.99883799   -1.1516151   -1.1516151   0.16386461  0.035179399   -1.1516151    1.3154797      1024000 
   26000    1.0015167   -1.1506197   -1.1506197   0.16838789   0.03026105   -1.1506197    1.3190075      1024000 
   26100    1.0019981   -1.1508503   -1.1508503   0.16879134  0.026756302   -1.1508503    1.3196416      1024000 
   26200   0.99850205   -1.1564751   -1.1564751   0.15856214   0.02985899   -1.1564751    1.3150373      1024000 
   26300   0.99805941   -1.1582357   -1.1582357   0.15621866  0.035801701   -1.1582357    1.3144543      1024000 
   26400   0.99836107   -1.1540332   -1.1540332   0.16081842  0.030179943   -1.1540332    1.3148516      1024000 
   26500    1.0028553   -1.1565684   -1.1565684    0.1642022  0.024652371   -1.1565684    1.3207706      1024000 
   26600    1.0017632   -1.1575551   -1.1575551   0.16177705  0.028708351   -1.1575551    1.3193322      1024000 
   26700   0.99985177   -1.1568599   -1.1568599   0.15995501   0.03002405   -1.1568599    1.3168149      1024000 
   26800   0.99794125   -1.1530757   -1.1530757   0.16122299  0.033066026   -1.1530757    1.3142987      1024000 
   26900    1.0006334   -1.1532926   -1.1532926   0.16455166  0.029397538   -1.1532926    1.3178443      1024000 
   27000    1.0018008   -1.1557283   -1.1557283   0.16365349  0.025641106   -1.1557283    1.3193818      1024000 
   27100   0.99234245   -1.1535952   -1.1535952   0.15332987  0.029684956   -1.1535952     1.306925      1024000 
   27200   0.99473786   -1.1544957   -1.1544957   0.15558411  0.033726388   -1.1544957    1.3100798      1024000 
   27300    1.0027943   -1.1570147   -1.1570147   0.16367554  0.031398703   -1.1570147    1.3206903      1024000 
   27400    1.0007668   -1.1548196   -1.1548196    0.1632003  0.031043589   -1.1548196    1.3180199      1024000 
   27500    0.9985998   -1.1543876   -1.1543876   0.16077842  0.025565574   -1.1543876     1.315166      1024000 
   27600     1.002041   -1.1590411   -1.1590411   0.16065705  0.021996875   -1.1590411    1.3196982      1024000 
   27700    1.0014579   -1.1568169   -1.1568169   0.16211336   0.03326491   -1.1568169    1.3189302      1024000 
   27800    1.0014214   -1.1584011   -1.1584011   0.16048102  0.032303476   -1.1584011    1.3188821      1024000 
   27900   0.99806388    -1.160653    -1.160653   0.15380724  0.028751299    -1.160653    1.3144602      1024000 
   28000   0.99752329    -1.162381    -1.162381    0.1513673  0.030059234    -1.162381    1.3137483      1024000 
   28100    1.0045343   -1.1645986   -1.1645986   0.15838313  0.029608216   -1.1645986    1.3229818      1024000 
   28200    1.0086926   -1.1671134   -1.1671134   0.16134498  0.028247576   -1.1671134    1.3284583      1024000 
   28300   0.99774957   -1.1643896   -1.1643896   0.14965664  0.030337688   -1.1643896    1.3140463      1024000 
   28400    0.9965292   -1.1622123   -1.1622123   0.15022671   0.03384508   -1.1622123     1.312439      1024000 
   28500     1.001135   -1.1628289   -1.1628289   0.15567601  0.030077198   -1.1628289    1.3185049      1024000 
   28600    1.0028948    -1.162476    -1.162476   0.15834655  0.025544525    -1.162476    1.3208226      1024000 
   28700   0.99836508   -1.1621139   -1.1621139   0.15274296  0.030784862   -1.1621139    1.3148569      1024000 
   28800   0.99357746    -1.162613    -1.162613   0.14593856  0.034642472    -1.162613    1.3085515      1024000 
   28900   0.99853389   -1.1602871   -1.1602871    0.1547921  0.028004777   -1.1602871    1.3150792      1024000 
   29000    0.9996983   -1.1563407   -1.1563407    0.1602721  0.025148397   -1.1563407    1.3166128      1024000 
   29100    1.0009776   -1.1554746   -1.1554746     0.162823  0.034095669   -1.1554746    1.3182976      1024000 
   29200    1.0019447   -1.1540087   -1.1540087   0.16556255  0.031819964   -1.1540087    1.3195713      1024000 
   29300    1.0017894   -1.1549831   -1.1549831   0.16438361  0.031955028   -1.1549831    1.3193668      1024000 
   29400   0.99587526   -1.1571266   -1.1571266   0.15445115  0.029344069   -1.1571266    1.3115778      1024000 
   29500   0.99744838   -1.1596198   -1.1596198   0.15402976   0.03055181   -1.1596198    1.3136496      1024000 
   29600    1.0040113   -1.1617729   -1.1617729   0.16052016  0.026802965   -1.1617729     1.322293      1024000 
   29700    1.0008161   -1.1598658   -1.1598658   0.15821917   0.02757237   -1.1598658    1.3180849      1024000 
   29800   0.99684907   -1.1595011   -1.1595011   0.15335916  0.031718706   -1.1595011    1.3128603      1024000 
   29900   0.99973847   -1.1614189   -1.1614189    0.1552468  0.037379516   -1.1614189    1.3166657      1024000 
   30000    1.0024694   -1.1622808   -1.1622808   0.15798153  0.027593942   -1.1622808    1.3202624      1024000 
   30100    1.0009717   -1.1604152   -1.1604152   0.15787474  0.028849138   -1.1604152    1.3182899      1024000 
   30200   0.99845827   -1.1632078   -1.1632078   0.15177183  0.029348084   -1.1632078    1.3149796      1024000 
   30300   0.99879222   -1.1678749   -1.1678749   0.14754453  0.030593613   -1.1678749    1.3154194      1024000 
   30400    1.0014131   -1.1664363   -1.1664363   0.15243489   0.03976666   -1.1664363    1.3188712      1024000 
   30500      1.00743   -1.1674248   -1.1674248   0.15937064  0.021620278   -1.1674248    1.3267955      1024000 
   30600    1.0001543   -1.1660566   -1.1660566   0.15115672  0.029860216   -1.1660566    1.3172133      1024000 
   30700   0.99717286   -1.1658818   -1.1658818    0.1474049  0.032476196   -1.1658818    1.3132867      1024000 
   30800   0.99968591   -1.1661747   -1.1661747   0.15042175  0.033967649   -1.1661747    1.3165964      1024000 
   30900     1.002682    -1.168368    -1.168368   0.15217436  0.022327564    -1.168368    1.3205423      1024000 
   31000   0.99775322   -1.1693053   -1.1693053   0.14474579  0.030314666   -1.1693053    1.3140511      1024000 
   31100   0.99377391   -1.1689877   -1.1689877   0.13982254  0.034614655   -1.1689877    1.3088103      1024000 
   31200   0.99925208   -1.1685682   -1.1685682   0.14745686  0.035035595   -1.1685682    1.3160251      1024000 
   31300    1.0014424   -1.1697709   -1.1697709   0.14913883  0.028912678   -1.1697709    1.3189097      1024000 
   31400    1.0008494   -1.1705199   -1.1705199   0.14760889  0.027093109   -1.1705199    1.3181288      1024000 
   31500   0.99863673   -1.1690974   -1.1690974   0.14611727  0.026286768   -1.1690974    1.3152147      1024000 
   31600    0.9993446   -1.1712673   -1.1712673   0.14487961  0.030916203   -1.1712673    1.3161469      1024000 
   31700   0.99900713   -1.1716095   -1.1716095   0.14409301  0.035778273   -1.1716095    1.3157025      1024000 
   31800   0.99893311   -1.1695563   -1.1695563    0.1460487  0.029475999   -1.1695563     1.315605      1024000 
   31900    1.0040271   -1.1691436   -1.1691436   0.15317023  0.027591432   -1.1691436    1.3223139      1024000 
   32000    1.0030644   -1.1680452   -1.1680452   0.15300075  0.031298328   -1.1680452     1.321046      1024000 
   32100   0.99788258   -1.1713189   -1.1713189   0.14290254  0.031357928   -1.1713189    1.3142214      1024000 
   32200   0.99782008   -1.1714411   -1.1714411   0.14269803   0.03711179   -1.1714411    1.3141391      1024000 
   32300   0.99972552   -1.1704429   -1.1704429   0.14620571  0.025842098   -1.1704429    1.3166486      1024000 
   32400    1.0035176    -1.174336    -1.174336   0.14730689  0.030332003    -1.174336    1.3216429      1024000 
   32500   0.99613494    -1.170483    -1.170483   0.14143679  0.028509765    -1.170483    1.3119198      1024000 
   32600   0.99286836   -1.1730289   -1.1730289    0.1345888  0.030233054   -1.1730289    1.3076177      1024000 
   32700     1.002571   -1.1756499   -1.1756499   0.14474625  0.036962037   -1.1756499    1.3203961      1024000 
   32800    1.0032029   -1.1738034   -1.1738034   0.14742491  0.026785377   -1.1738034    1.3212283      1024000 
   32900   0.99980449    -1.173022    -1.173022   0.14373064  0.025933547    -1.173022    1.3167526      1024000 
   33000   0.99772622   -1.1749174   -1.1749174   0.13909812  0.030646122   -1.1749174    1.3140155      1024000 
   33100   0.99764555   -1.1757822   -1.1757822   0.13812708  0.030413589   -1.1757822    1.3139093      1024000 
   33200    1.0034167   -1.1735864   -1.1735864   0.14792349  0.030191752   -1.1735864    1.3215099      1024000 
   33300     1.003731   -1.1720962   -1.1720962   0.14982774  0.029823286   -1.1720962    1.3219239      1024000 
   33400   0.99896225   -1.1728347   -1.1728347   0.14280867  0.031750827   -1.1728347    1.3156434      1024000 
   33500    0.9974531   -1.1742258   -1.1742258   0.13943002  0.030601364   -1.1742258    1.3136558      1024000 
   33600   0.99992902   -1.1747641   -1.1747641   0.14215253  0.031472182   -1.1747641    1.3169166      1024000 
   33700    1.0003972   -1.1741434   -1.1741434   0.14338982  0.029792253   -1.1741434    1.3175332      1024000 
   33800     0.998381   -1.1726484   -1.1726484   0.14222945  0.034792255   -1.1726484    1.3148779      1024000 
   33900    1.0001091   -1.1732207   -1.1732207     0.143933  0.035567435   -1.1732207    1.3171537      1024000 
   34000    1.0030397   -1.1702476   -1.1702476   0.15076587  0.025731656   -1.1702476    1.3210134      1024000 
   34100    1.0014459   -1.1662523   -1.1662523   0.15266206  0.028935806   -1.1662523    1.3189144      1024000 
   34200   0.99687293   -1.1652844   -1.1652844   0.14760731  0.033589444   -1.1652844    1.3128917      1024000 
   34300    0.9975661   -1.1658334   -1.1658334   0.14797119  0.034248635   -1.1658334    1.3138046      1024000 
   34400     1.004868   -1.1656375   -1.1656375   0.15778382  0.029301742   -1.1656375    1.3234213      1024000 
   34500    1.0043768   -1.1660324   -1.1660324   0.15674205  0.028016921   -1.1660324    1.3227744      1024000 
   34600    0.9996797   -1.1671598   -1.1671598   0.14942846  0.030390118   -1.1671598    1.3165883      1024000 
   34700   0.99832162   -1.1661936   -1.1661936   0.14860602   0.02844347   -1.1661936    1.3147997      1024000 
   34800   0.99992848   -1.1643817   -1.1643817   0.15253424  0.030171081   -1.1643817    1.3169159      1024000 
   34900    1.0027674   -1.1618948   -1.1618948    0.1587601  0.038331498   -1.1618948    1.3206549      1024000 
   35000     1.004934   -1.1603554   -1.1603554   0.16315283  0.032961598   -1.1603554    1.3235082      1024000 
   35100    1.0010396   -1.1624209   -1.1624209   0.15595836  0.025643109   -1.1624209    1.3183793      1024000 
   35200   0.99858138   -1.1668798   -1.1668798   0.14826196  0.027645342   -1.1668798    1.3151418      1024000 
   35300    1.0001711   -1.1683423   -1.1683423   0.14889311  0.031569868   -1.1683423    1.3172354      1024000 
   35400    1.0002509   -1.1642807   -1.1642807   0.15305994  0.035279282   -1.1642807    1.3173406      1024000 
   35500     1.005412   -1.1665154   -1.1665154   0.15762239  0.027273568   -1.1665154    1.3241378      1024000 
   35600    1.0000358    -1.166531    -1.166531   0.15052628  0.028809322    -1.166531    1.3170573      1024000 
   35700     0.995445   -1.1670109   -1.1670109   0.14400021  0.033728437   -1.1670109    1.3110111      1024000 
   35800   0.99868609   -1.1686375   -1.1686375   0.14664218   0.03240204   -1.1686375    1.3152797      1024000 
   35900    1.0045556   -1.1709634   -1.1709634   0.15204645  0.033415924   -1.1709634    1.3230098      1024000 
   36000    1.0001578   -1.1689796   -1.1689796   0.14823833  0.032096355   -1.1689796    1.3172179      1024000 
   36100   0.99240928   -1.1687256   -1.1687256   0.13828747  0.023412204   -1.1687256     1.307013      1024000 
   36200   0.99678493    -1.168853    -1.168853    0.1439228  0.031737684    -1.168853    1.3127758      1024000 
   36300    1.0019977   -1.1704144   -1.1704144   0.14922668  0.029680527   -1.1704144    1.3196411      1024000 
   36400    1.0016424   -1.1715597   -1.1715597    0.1476135  0.028728085   -1.1715597    1.3191732      1024000 
   36500   0.99880206   -1.1717642   -1.1717642   0.14366818  0.033565148   -1.1717642    1.3154324      1024000 
   36600   0.99677741   -1.1714945   -1.1714945   0.14127139   0.03883398   -1.1714945    1.3127659      1024000 
   36700    0.9979865   -1.1688363   -1.1688363   0.14552196  0.031455425   -1.1688363    1.3143583      1024000 
   36800    1.0017202   -1.1646172   -1.1646172   0.15465839  0.029218651   -1.1646172    1.3192756      1024000 
   36900     1.001794   -1.1646718   -1.1646718   0.15470098   0.02632648   -1.1646718    1.3193728      1024000 
   37000   0.99672379   -1.1637185   -1.1637185   0.14897681  0.030113714   -1.1637185    1.3126953      1024000 
   37100   0.99657143   -1.1652928   -1.1652928   0.14720188   0.03242727   -1.1652928    1.3124946      1024000 
   37200    1.0055684   -1.1658098   -1.1658098   0.15853386  0.030290842   -1.1658098    1.3243437      1024000 
   37300    1.0048461   -1.1653111   -1.1653111   0.15808142  0.035223098   -1.1653111    1.3233925      1024000 
   37400    1.0007025    -1.166586    -1.166586   0.15134922  0.029949954    -1.166586    1.3179353      1024000 
   37500   0.99857379   -1.1659609   -1.1659609   0.14917083  0.025908944   -1.1659609    1.3151318      1024000 
   37600   0.99967054    -1.164936    -1.164936    0.1516402  0.035486762    -1.164936    1.3165762      1024000 
   37700     1.006095   -1.1654114   -1.1654114   0.15962586  0.038327254   -1.1654114    1.3250372      1024000 
   37800    1.0046376   -1.1632004   -1.1632004   0.15991752  0.029118513   -1.1632004    1.3231179      1024000 
   37900   0.99710659   -1.1655128   -1.1655128   0.14768666  0.026100634   -1.1655128    1.3131995      1024000 
   38000   0.99894262   -1.1661124   -1.1661124   0.14950514  0.034609974   -1.1661124    1.3156175      1024000 
   38100    1.0027163   -1.1667717   -1.1667717   0.15381575   0.03692054   -1.1667717    1.3205874      1024000 
   38200    1.0026197   -1.1710498   -1.1710498   0.14941049   0.02597043   -1.1710498    1.3204602      1024000 
   38300   0.99583668    -1.171988    -1.171988   0.13953897  0.031207899    -1.171988     1.311527      1024000 
   38400    0.9984922   -1.1743122   -1.1743122   0.14071208  0.033389433   -1.1743122    1.3150243      1024000 
   38500      1.00072   -1.1741792   -1.1741792   0.14377917  0.033742351   -1.1741792    1.3179584      1024000 
   38600   0.99892895    -1.169624    -1.169624   0.14597552  0.031205101    -1.169624    1.3155995      1024000 
   38700    1.0031095   -1.1677287   -1.1677287   0.15337657  0.032719908   -1.1677287    1.3211053      1024000 
   38800      1.00451   -1.1657749   -1.1657749    0.1571749  0.032793517   -1.1657749    1.3229498      1024000 
   38900   0.99627341   -1.1630482   -1.1630482   0.14905398  0.028987237   -1.1630482    1.3121021      1024000 
   39000   0.99756442    -1.166188    -1.166188   0.14761446  0.029582854    -1.166188    1.3138024      1024000 
   39100    1.0018683   -1.1680838   -1.1680838    0.1513869  0.034292613   -1.1680838    1.3194707      1024000 
   39200    1.0022517   -1.1688994   -1.1688994   0.15107631  0.034734953   -1.1688994    1.3199757      1024000 
   39300    1.0008874   -1.1688255   -1.1688255   0.14935332  0.032604591   -1.1688255    1.3181788      1024000 
   39400   0.99904773   -1.1665177   -1.1665177   0.14923827  0.034476201   -1.1665177     1.315756      1024000 
   39500   0.99965675   -1.1648988   -1.1648988   0.15165925  0.033240527   -1.1648988     1.316558      1024000 
   39600    1.0062901   -1.1658702   -1.1658702   0.15942406  0.024612854   -1.1658702    1.3252942      1024000 
   39700    1.0025923   -1.1611903   -1.1611903   0.15923382  0.031856645   -1.1611903    1.3204242      1024000 
   39800   0.99376849    -1.158843    -1.158843   0.14996013  0.033674616    -1.158843    1.3088031      1024000 
   39900   0.99718418   -1.1610388   -1.1610388   0.15226283  0.028062991   -1.1610388    1.3133016      1024000 
   40000    1.0012139   -1.1619022   -1.1619022   0.15670668   0.02739044   -1.1619022    1.3186088      1024000 
   40100    1.0024398   -1.1628486   -1.1628486   0.15737477  0.037170291   -1.1628486    1.3202233      1024000 
   40200   0.99870679   -1.1622362   -1.1622362    0.1530707  0.037360245   -1.1622362    1.3153069      1024000 
   40300   0.99266634   -1.1637554   -1.1637554   0.14359624  0.026311061   -1.1637554    1.3073516      1024000 
   40400   0.99488309    -1.162388    -1.162388   0.14788306  0.029465102    -1.162388    1.3102711      1024000 
   40500    1.0016896   -1.1612257   -1.1612257   0.15800952  0.033633488   -1.1612257    1.3192353      1024000 
   40600    1.0023308    -1.162015    -1.162015   0.15806478  0.031747649    -1.162015    1.3200798      1024000 
   40700   0.99989302   -1.1645322   -1.1645322   0.15233699  0.030139044   -1.1645322    1.3168692      1024000 
   40800   0.99672528   -1.1631567   -1.1631567   0.14954053  0.022958236   -1.1631567    1.3126973      1024000 
   40900    1.0014983   -1.1614069   -1.1614069   0.15757652  0.031095057   -1.1614069    1.3189834      1024000 
   41000    1.0037457   -1.1604906   -1.1604906   0.16145258  0.037050959   -1.1604906    1.3219432      1024000 
   41100    1.0007818   -1.1607787   -1.1607787    0.1572611  0.034676243   -1.1607787    1.3180398      1024000 
   41200    1.0005602   -1.1630307   -1.1630307    0.1547171  0.030243526   -1.1630307    1.3177478      1024000 
   41300   0.99981301   -1.1631982   -1.1631982   0.15356564  0.030906747   -1.1631982    1.3167638      1024000 
   41400   0.99762561   -1.1610203   -1.1610203   0.15286266   0.03336832   -1.1610203     1.313883      1024000 
   41500     1.000851   -1.1606618   -1.1606618   0.15746903  0.034351577   -1.1606618    1.3181309      1024000 
   41600    1.0041555   -1.1586097   -1.1586097   0.16387322  0.032888806   -1.1586097    1.3224829      1024000 
   41700     1.001653   -1.1565765   -1.1565765   0.16261059   0.03131318   -1.1565765    1.3191871      1024000 
   41800   0.99519388    -1.155398    -1.155398    0.1552824  0.034348104    -1.155398    1.3106804      1024000 
   41900   0.99802209   -1.1558481   -1.1558481   0.15855707   0.03185741   -1.1558481    1.3144052      1024000 
   42000    1.0039223   -1.1530998   -1.1530998   0.16907605  0.029509943   -1.1530998    1.3221758      1024000 
   42100    1.0007649   -1.1507623   -1.1507623    0.1672552  0.031602537   -1.1507623    1.3180175      1024000 
   42200   0.99583027   -1.1473273   -1.1473273   0.16419127  0.034840612   -1.1473273    1.3115185      1024000 
   42300    0.9997919   -1.1486016   -1.1486016   0.16813445  0.040497366   -1.1486016     1.316736      1024000 
   42400    1.0083458   -1.1520292   -1.1520292   0.17597243  0.033129224   -1.1520292    1.3280016      1024000 
   42500   0.99930961   -1.1499736   -1.1499736   0.16612722   0.02675232   -1.1499736    1.3161008      1024000 
   42600   0.99860928   -1.1535122   -1.1535122   0.16166627    0.0276996   -1.1535122    1.3151785      1024000 
   42700    1.0008222     -1.15207     -1.15207   0.16602299  0.032001258     -1.15207     1.318093      1024000 
   42800    1.0024493   -1.1496402   -1.1496402   0.17059566  0.035506079   -1.1496402    1.3202358      1024000 
   42900    1.0012539   -1.1497733   -1.1497733   0.16888816  0.037387727   -1.1497733    1.3186615      1024000 
   43000   0.99554367   -1.1514866   -1.1514866   0.15965444  0.023555859   -1.1514866    1.3111411      1024000 
   43100   0.99454166   -1.1491835   -1.1491835   0.16063791  0.029147046   -1.1491835    1.3098214      1024000 
   43200    1.0031393   -1.1538335   -1.1538335   0.16731102  0.033091302   -1.1538335    1.3211446      1024000 
   43300     1.001862   -1.1543011   -1.1543011   0.16516125  0.036556165   -1.1543011    1.3194624      1024000 
   43400   0.99703484   -1.1524425   -1.1524425   0.16066244  0.041252759   -1.1524425     1.313105      1024000 
   43500   0.99749556   -1.1519792   -1.1519792   0.16173255  0.028923397   -1.1519792    1.3137117      1024000 
   43600    1.0067034   -1.1546943   -1.1546943   0.17114424  0.024771056   -1.1546943    1.3258385      1024000 
   43700    1.0035981   -1.1545332   -1.1545332   0.16721555  0.032792702   -1.1545332    1.3217488      1024000 
   43800   0.99687755    -1.152303    -1.152303   0.16059479  0.033688074    -1.152303    1.3128978      1024000 
   43900   0.99806098    -1.152165    -1.152165   0.16229139  0.034003166    -1.152165    1.3144564      1024000 
   44000    1.0037814   -1.1566855   -1.1566855   0.16530472  0.028443695   -1.1566855    1.3219902      1024000 
   44100   0.99970842   -1.1567189   -1.1567189   0.15990721  0.028620619   -1.1567189    1.3166261      1024000 
   44200    0.9956513    -1.158841    -1.158841   0.15244185   0.02949817    -1.158841    1.3112828      1024000 
   44300   0.99943821   -1.1593984   -1.1593984   0.15687187  0.040046981   -1.1593984    1.3162702      1024000 
   44400    1.0014267   -1.1587018   -1.1587018   0.16018724  0.035879305   -1.1587018    1.3188891      1024000 
   44500   0.99880454    -1.155518    -1.155518   0.15991769  0.025533366    -1.155518    1.3154357      1024000 
   44600    1.0002432   -1.1559136   -1.1559136   0.16141678  0.028823442   -1.1559136    1.3173303      1024000 
   44700    1.0034268   -1.1569104   -1.1569104   0.16461287  0.029653983   -1.1569104    1.3215232      1024000 
   44800    1.0012217   -1.1541873   -1.1541873   0.16443176  0.032946431   -1.1541873    1.3186191      1024000 
   44900   0.99883913    -1.154176    -1.154176    0.1613052  0.037576018    -1.154176    1.3154812      1024000 
   45000   0.99944603   -1.1534762   -1.1534762   0.16280432  0.030690719   -1.1534762    1.3162805      1024000 
   45100    1.0037311   -1.1519306   -1.1519306   0.16999335  0.029997039   -1.1519306    1.3219239      1024000 
   45200    1.0048369   -1.1549056   -1.1549056   0.16847482  0.033087878   -1.1549056    1.3233804      1024000 
   45300   0.99580277    -1.153112    -1.153112   0.15837034   0.03013038    -1.153112    1.3114823      1024000 
   45400   0.99897625   -1.1558941   -1.1558941   0.15976767  0.030477535   -1.1558941    1.3156618      1024000 
   45500    1.0020992   -1.1566559   -1.1566559   0.16311881  0.038703282   -1.1566559    1.3197747      1024000 
   45600    0.9998015   -1.1563063   -1.1563063   0.16044234  0.035492626   -1.1563063    1.3167487      1024000 
   45700   0.99344677   -1.1554578   -1.1554578   0.15292158  0.031094577   -1.1554578    1.3083794      1024000 
   45800   0.99843276   -1.1538499   -1.1538499   0.16109617  0.027092705   -1.1538499     1.314946      1024000 
   45900    1.0017554   -1.1507509   -1.1507509   0.16857107  0.033449638   -1.1507509     1.319322      1024000 
   46000    1.0013309   -1.1494338   -1.1494338   0.16932908  0.033899879   -1.1494338    1.3187629      1024000 
   46100    1.0007204   -1.1514472   -1.1514472   0.16651177  0.029730944   -1.1514472    1.3179589      1024000 
   46200   0.99605814   -1.1492825   -1.1492825   0.16253612  0.033394219   -1.1492825    1.3118186      1024000 
   46300   0.99548727   -1.1455856   -1.1455856   0.16548114   0.03423087   -1.1455856    1.3110668      1024000 
   46400    1.0033691   -1.1459082   -1.1459082   0.17553908  0.037690222   -1.1459082    1.3214473      1024000 
   46500    1.0017114   -1.1446962   -1.1446962   0.17456784  0.035405904   -1.1446962     1.319264      1024000 
   46600   0.99932392   -1.1460318   -1.1460318   0.17008791   0.03153815   -1.1460318    1.3161197      1024000 
   46700   0.99897973   -1.1491355   -1.1491355   0.16653091  0.027477144   -1.1491355    1.3156664      1024000 
   46800   0.99498437   -1.1514271   -1.1514271   0.15897739  0.033664097   -1.1514271    1.3104045      1024000 
   46900   0.99608911   -1.1515935   -1.1515935   0.16026596  0.034755694   -1.1515935    1.3118594      1024000 
   47000    1.0030133   -1.1515273   -1.1515273   0.16945146  0.034616354   -1.1515273    1.3209787      1024000 
   47100    1.0015495   -1.1498399   -1.1498399   0.16921092  0.028295869   -1.1498399    1.3190508      1024000 
   47200   0.99677791   -1.1490703   -1.1490703   0.16369628  0.030640386   -1.1490703    1.3127666      1024000 
   47300   0.99844951   -1.1493225   -1.1493225   0.16564565  0.033164824   -1.1493225    1.3149681      1024000 
   47400    1.0055229   -1.1472831   -1.1472831   0.17700071  0.036210671   -1.1472831    1.3242838      1024000 
   47500     1.002697   -1.1485047   -1.1485047   0.17205728  0.032921497   -1.1485047     1.320562      1024000 
   47600   0.99948773    -1.152151    -1.152151   0.16418447  0.034291077    -1.152151    1.3163354      1024000 
   47700   0.99864169   -1.1510622   -1.1510622   0.16415898  0.028844383   -1.1510622    1.3152212      1024000 
   47800    1.0017774   -1.1490946   -1.1490946   0.17025637  0.032112303   -1.1490946     1.319351      1024000 
   47900    1.0045101   -1.1492183   -1.1492183    0.1737317  0.036127174   -1.1492183      1.32295      1024000 
   48000   0.99731862   -1.1516157   -1.1516157   0.16186295  0.036410317   -1.1516157    1.3134787      1024000 
   48100   0.99305786   -1.1487825   -1.1487825   0.15908474  0.032455437   -1.1487825    1.3078672      1024000 
   48200    1.0003398   -1.1498252   -1.1498252   0.16763249  0.030917789   -1.1498252    1.3174577      1024000 
   48300    1.0032948    -1.150643    -1.150643    0.1707064  0.030911051    -1.150643    1.3213494      1024000 
   48400    1.0009213   -1.1515604   -1.1515604   0.16666314  0.035921283   -1.1515604    1.3182235      1024000 
   48500   0.99547795   -1.1505183   -1.1505183    0.1605362  0.039994646   -1.1505183    1.3110545      1024000 
   48600    1.0006081   -1.1487644   -1.1487644   0.16904661   0.03569803   -1.1487644     1.317811      1024000 
   48700    1.0041276   -1.1466129   -1.1466129   0.17583331  0.030773366   -1.1466129    1.3224462      1024000 
   48800    1.0005957   -1.1486022   -1.1486022   0.16919248  0.032996349   -1.1486022    1.3177947      1024000 
   48900   0.99759256   -1.1506987   -1.1506987   0.16314076  0.030874391   -1.1506987    1.3138395      1024000 
   49000   0.99943906   -1.1527829   -1.1527829   0.16348846  0.033992944   -1.1527829    1.3162713      1024000 
   49100     1.002348   -1.1521901   -1.1521901   0.16791232  0.037454942   -1.1521901    1.3201024      1024000 
   49200    1.0058531   -1.1525391   -1.1525391    0.1721796  0.034405775   -1.1525391    1.3247187      1024000 
   49300   0.99951515   -1.1535491   -1.1535491    0.1628224  0.030939741   -1.1535491    1.3163715      1024000 
   49400   0.99599588   -1.1527778   -1.1527778   0.15895884  0.030286878   -1.1527778    1.3117366      1024000 
   49500    1.0012145   -1.1535957   -1.1535957   0.16501395   0.03495159   -1.1535957    1.3186096      1024000 
   49600    1.0047218   -1.1553738   -1.1553738   0.16785495  0.038391116   -1.1553738    1.3232288      1024000 
   49700    1.0007105   -1.1556931   -1.1556931   0.16225272   0.02947568   -1.1556931    1.3179458      1024000 
   49800    1.0002607   -1.1578742   -1.1578742   0.15947927  0.033440382   -1.1578742    1.3173535      1024000 
   49900    0.9992978   -1.1555423   -1.1555423   0.16054303  0.038308821   -1.1555423    1.3160853      1024000 
   50000    1.0001837    -1.153598    -1.153598   0.16365398   0.03483276    -1.153598     1.317252      1024000 
   50100     1.001337   -1.1516091   -1.1516091   0.16716191  0.019310904   -1.1516091     1.318771      1024000 
   50200    1.0060438   -1.1497312   -1.1497312   0.17523861  0.035920196   -1.1497312    1.3249698      1024000 
   50300    1.0042593   -1.1508172   -1.1508172   0.17180238  0.037924075   -1.1508172    1.3226196      1024000 
   50400    0.9992251   -1.1534277   -1.1534277   0.16256185  0.033499583   -1.1534277    1.3159896      1024000 
   50500   0.99998498   -1.1551704   -1.1551704    0.1618199  0.031409712   -1.1551704    1.3169903      1024000 
   50600    1.0004248   -1.1542106   -1.1542106   0.16335903  0.033330624   -1.1542106    1.3175696      1024000 
   50700    1.0000095   -1.1547442   -1.1547442   0.16227847  0.035831971   -1.1547442    1.3170227      1024000 
   50800   0.99692009   -1.1548327   -1.1548327   0.15812115  0.044768067   -1.1548327    1.3129538      1024000 
   50900   0.99665646   -1.1545635   -1.1545635   0.15804317  0.025405047   -1.1545635    1.3126066      1024000 
   51000     1.004109   -1.1552632   -1.1552632   0.16715852  0.030417742   -1.1552632    1.3224217      1024000 
   51100    1.0044881   -1.1561487   -1.1561487   0.16677235  0.035299036   -1.1561487     1.322921      1024000 
   51200   0.99843219   -1.1550307   -1.1550307   0.15991456   0.02998906   -1.1550307    1.3149453      1024000 
   51300     0.999086   -1.1571866   -1.1571866   0.15861976  0.031327005   -1.1571866    1.3158064      1024000 
   51400    1.0005224   -1.1557115   -1.1557115   0.16198668  0.037455609   -1.1557115    1.3176982      1024000 
   51500   0.99970778   -1.1522023   -1.1522023   0.16442296  0.038795307   -1.1522023    1.3166252      1024000 
   51600    1.0046288   -1.1537052   -1.1537052   0.16940104  0.026400247   -1.1537052    1.3231063      1024000 
   51700     1.003708   -1.1513111   -1.1513111   0.17058253  0.032341969   -1.1513111    1.3218936      1024000 
   51800   0.99742579   -1.1522035   -1.1522035   0.16141638  0.035993121   -1.1522035    1.3136198      1024000 
   51900    0.9957408   -1.1513263   -1.1513263   0.16007434  0.038403952   -1.1513263    1.3114007      1024000 
   52000    1.0025559   -1.1521071   -1.1521071   0.16826917  0.033185872   -1.1521071    1.3203763      1024000 
   52100    1.0028177   -1.1509776   -1.1509776   0.16974347   0.03283612   -1.1509776    1.3207211      1024000 
   52200     1.002444   -1.1539955   -1.1539955   0.16623342  0.037898257   -1.1539955    1.3202289      1024000 
   52300   0.99951367   -1.1547771   -1.1547771   0.16159251  0.036699123   -1.1547771    1.3163696      1024000 
   52400   0.99623375    -1.150343    -1.150343   0.16170693  0.032716824    -1.150343    1.3120499      1024000 
   52500    1.0011817   -1.1504088   -1.1504088   0.16815759  0.032461105   -1.1504088    1.3185664      1024000 
   52600    1.0030418   -1.1505391   -1.1505391   0.17047711  0.034529028   -1.1505391    1.3210162      1024000 
   52700    0.9957924   -1.1552376   -1.1552376   0.15623109  0.032785731   -1.1552376    1.3114687      1024000 
   52800   0.99310423   -1.1510561   -1.1510561   0.15687219  0.029138891   -1.1510561    1.3079283      1024000 
   52900   0.99941451   -1.1489731   -1.1489731   0.16726587  0.033307334   -1.1489731     1.316239      1024000 
   53000    1.0023302   -1.1483344   -1.1483344   0.17174459  0.036874091   -1.1483344     1.320079      1024000 
   53100    1.0013059   -1.1488891   -1.1488891   0.16984087  0.034858181   -1.1488891      1.31873      1024000 
   53200   0.99618477   -1.1477532   -1.1477532    0.1642322  0.036130844   -1.1477532    1.3119854      1024000 
   53300   0.99818303   -1.1479102   -1.1479102    0.1667069  0.035269404   -1.1479102    1.3146171      1024000 
   53400    1.0029908   -1.1432705   -1.1432705   0.17767854  0.027913918   -1.1432705     1.320949      1024000 
   53500    1.0025532   -1.1449838   -1.1449838   0.17538884  0.030329429   -1.1449838    1.3203727      1024000 
   53600   0.99755788   -1.1437876   -1.1437876   0.17000623  0.034427635   -1.1437876    1.3137938      1024000 
   53700   0.99699147   -1.1427015   -1.1427015    0.1703463   0.04574468   -1.1427015    1.3130478      1024000 
   53800    1.0068236   -1.1478392   -1.1478392   0.17815765  0.031402355   -1.1478392    1.3259968      1024000 
   53900     1.008569     -1.14449     -1.14449   0.18380552  0.029093893     -1.14449    1.3282955      1024000 
   54000   0.99885079   -1.1439717   -1.1439717   0.17152492  0.032349549   -1.1439717    1.3154966      1024000 
   54100   0.99680539   -1.1452832   -1.1452832   0.16751953   0.03418823   -1.1452832    1.3128028      1024000 
   54200    1.0020088   -1.1496369   -1.1496369   0.17001885   0.03403189   -1.1496369    1.3196558      1024000 
   54300    1.0017501   -1.1479484   -1.1479484    0.1713665  0.044423291   -1.1479484    1.3193149      1024000 
   54400   0.99934871   -1.1481174   -1.1481174   0.16803491  0.025046901   -1.1481174    1.3161523      1024000 
   54500   0.99838491   -1.1529244   -1.1529244   0.16195863  0.029050037   -1.1529244     1.314883      1024000 
   54600   0.99837589   -1.1541621   -1.1541621   0.16070905  0.033406646   -1.1541621    1.3148711      1024000 
   54700    1.0022336   -1.1517591   -1.1517591   0.16819265  0.030695592   -1.1517591    1.3199518      1024000 
   54800     1.004294    -1.150798    -1.150798   0.17186745  0.034116017    -1.150798    1.3226654      1024000 
   54900   0.99900692   -1.1504467   -1.1504467   0.16525553  0.035301024   -1.1504467    1.3157022      1024000 
   55000   0.99676959   -1.1500814   -1.1500814    0.1626742   0.03483787   -1.1500814    1.3127556      1024000 
   55100   0.99854432   -1.1503185   -1.1503185   0.16477441   0.03454513   -1.1503185     1.315093      1024000 
   55200    1.0017417   -1.1517031   -1.1517031   0.16760086  0.029185214   -1.1517031     1.319304      1024000 
   55300   0.99782594   -1.1491172   -1.1491172   0.16502964   0.03449491   -1.1491172    1.3141468      1024000 
   55400   0.99331846   -1.1484948   -1.1484948    0.1597156  0.037446324   -1.1484948    1.3082104      1024000 
   55500   0.99793188   -1.1494944   -1.1494944   0.16479194  0.038466846   -1.1494944    1.3142864      1024000 
   55600    1.0030155   -1.1481714   -1.1481714   0.17281012    0.0294665   -1.1481714    1.3209815      1024000 
   55700    1.0007315   -1.1477449   -1.1477449   0.17022858  0.033235113   -1.1477449    1.3179735      1024000 
   55800   0.99814965   -1.1489105   -1.1489105   0.16566269  0.035187626   -1.1489105    1.3145732      1024000 
   55900   0.99791394   -1.1488706   -1.1488706   0.16539217  0.044749648   -1.1488706    1.3142627      1024000 
   56000    1.0054851   -1.1520942   -1.1520942   0.17213982  0.025722971   -1.1520942     1.324234      1024000 
   56100    1.0032063   -1.1525365   -1.1525365   0.16869633   0.03394639   -1.1525365    1.3212329      1024000 
   56200   0.99855862   -1.1544185   -1.1544185   0.16069334  0.037784668   -1.1544185    1.3151118      1024000 
   56300   0.99731609   -1.1520658   -1.1520658   0.16140952  0.029325292   -1.1520658    1.3134754      1024000 
   56400    1.0012071   -1.1513645   -1.1513645    0.1672354  0.029930223   -1.1513645    1.3185999      1024000 
   56500    1.0024364   -1.1515305   -1.1515305   0.16868841   0.03664709   -1.1515305    1.3202189      1024000 
   56600    1.0006134   -1.1508599   -1.1508599   0.16695803  0.036261988   -1.1508599    1.3178179      1024000 
   56700    1.0011187   -1.1531034   -1.1531034   0.16538005  0.027045068   -1.1531034    1.3184834      1024000 
   56800   0.99863809   -1.1530653   -1.1530653    0.1621512   0.03560369   -1.1530653    1.3152165      1024000 
   56900   0.99734061   -1.1541947   -1.1541947   0.15931292  0.035638367   -1.1541947    1.3135077      1024000 
   57000   0.99844245   -1.1516745   -1.1516745   0.16328425  0.038117677   -1.1516745    1.3149588      1024000 
   57100    1.0031023   -1.1490936   -1.1490936   0.17200234  0.029648113   -1.1490936    1.3210959      1024000 
   57200    1.0010295   -1.1479584   -1.1479584   0.17040763  0.030999696   -1.1479584     1.318366      1024000 
   57300   0.99595816   -1.1477691   -1.1477691   0.16391782  0.035277813   -1.1477691     1.311687      1024000 
   57400   0.99767548   -1.1473049   -1.1473049   0.16664377  0.037705292   -1.1473049    1.3139487      1024000 
   57500    1.0058815    -1.147509    -1.147509   0.17724711  0.035856995    -1.147509    1.3247561      1024000 
   57600    1.0008334   -1.1445002   -1.1445002   0.17360758  0.030863874   -1.1445002    1.3181077      1024000 
   57700   0.99829609   -1.1462068   -1.1462068   0.16855921  0.030193976   -1.1462068     1.314766      1024000 
   57800   0.99773506   -1.1465351   -1.1465351   0.16749209  0.034613262   -1.1465351    1.3140272      1024000 
   57900    1.0022536   -1.1450044   -1.1450044   0.17497375  0.039061168   -1.1450044    1.3199782      1024000 
   58000    1.0050485   -1.1432412   -1.1432412   0.18041774  0.036030701   -1.1432412     1.323659      1024000 
   58100   0.99796537   -1.1422577   -1.1422577   0.17207282   0.02425151   -1.1422577    1.3143305      1024000 
   58200   0.99919492   -1.1457379   -1.1457379   0.17021191  0.030206955   -1.1457379    1.3159498      1024000 
   58300    1.0016425   -1.1475536   -1.1475536   0.17161969  0.034700374   -1.1475536    1.3191733      1024000 
   58400     1.000513   -1.1466223   -1.1466223   0.17106343  0.039120326   -1.1466223    1.3176857      1024000 
   58500   0.99776289   -1.1480296   -1.1480296   0.16603418  0.033090062   -1.1480296    1.3140638      1024000 
   58600   0.99507398   -1.1487116   -1.1487116   0.16181092  0.028152241   -1.1487116    1.3105225      1024000 
   58700    1.0010535   -1.1486076   -1.1486076   0.16978993  0.034479094   -1.1486076    1.3183976      1024000 
   58800    1.0024439    -1.145507    -1.145507   0.17472173  0.038900821    -1.145507    1.3202287      1024000 
   58900    1.0003922   -1.1463588   -1.1463588   0.17116789  0.038738807   -1.1463588    1.3175267      1024000 
   59000    0.9979068   -1.1462424   -1.1462424   0.16801094  0.028408648   -1.1462424    1.3142533      1024000 
   59100   0.99797779   -1.1462361   -1.1462361   0.16811071  0.031352144   -1.1462361    1.3143468      1024000 
   59200   0.99732862   -1.1432854   -1.1432854   0.17020642   0.03636468   -1.1432854    1.3134919      1024000 
   59300   0.99931547   -1.1427631   -1.1427631   0.17334543  0.037391966   -1.1427631    1.3161086      1024000 
   59400    1.0022908   -1.1443348   -1.1443348   0.17569222  0.034661748   -1.1443348    1.3200271      1024000 
   59500    1.0009419   -1.1457258   -1.1457258   0.17252476  0.029699424   -1.1457258    1.3182506      1024000 
   59600   0.99437225    -1.145398    -1.145398   0.16420028  0.034961891    -1.145398    1.3095983      1024000 
   59700   0.99780149   -1.1439716   -1.1439716   0.17014304  0.039338412   -1.1439716    1.3141146      1024000 
   59800    1.0037933    -1.145131    -1.145131   0.17687488  0.034061494    -1.145131    1.3220059      1024000 
   59900    1.0013467   -1.1450441   -1.1450441   0.17373966  0.024272761   -1.1450441    1.3187838      1024000 
   60000   0.99645198   -1.1427055   -1.1427055   0.16963179  0.037743472   -1.1427055    1.3123373      1024000 
   60100    1.0013275   -1.1481581   -1.1481581   0.17060027  0.039716302   -1.1481581    1.3187584      1024000 
   60200    1.0029343   -1.1452415   -1.1452415   0.17563302  0.030898731   -1.1452415    1.3208746      1024000 
   60300    1.0058509   -1.1468396   -1.1468396   0.17787624   0.02841809   -1.1468396    1.3247158      1024000 
   60400   0.99931035   -1.1484446   -1.1484446   0.16765723   0.03580565   -1.1484446    1.3161018      1024000 
   60500   0.99882784   -1.1511388   -1.1511388    0.1643275  0.035396958   -1.1511388    1.3154663      1024000 
   60600    1.0014688   -1.1515686   -1.1515686   0.16737582  0.035022948   -1.1515686    1.3189445      1024000 
   60700    1.0033663   -1.1492386   -1.1492386   0.17220488  0.031219438   -1.1492386    1.3214435      1024000 
   60800    1.0033703   -1.1487288   -1.1487288      0.17272  0.032016351   -1.1487288    1.3214488      1024000 
   60900   0.99663811   -1.1469869   -1.1469869   0.16559552  0.037970551   -1.1469869    1.3125825      1024000 
   61000   0.99685562   -1.1485784   -1.1485784   0.16429048  0.034071557   -1.1485784    1.3128689      1024000 
   61100    1.0007331   -1.1453153   -1.1453153   0.17266027  0.032553239   -1.1453153    1.3179756      1024000 
   61200    1.0019088   -1.1429195   -1.1429195   0.17660447   0.03533437   -1.1429195     1.319524      1024000 
   61300    1.0005883   -1.1443334   -1.1443334   0.17345154  0.038610082   -1.1443334    1.3177849      1024000 
   61400   0.99981354   -1.1474032   -1.1474032   0.16936136   0.03268391   -1.1474032    1.3167645      1024000 
   61500    1.0011575   -1.1496078   -1.1496078   0.16892675  0.031511512   -1.1496078    1.3185346      1024000 
   61600   0.99933295   -1.1477798   -1.1477798   0.16835179  0.033829843   -1.1477798    1.3161316      1024000 
   61700   0.99921515   -1.1458636   -1.1458636   0.17011281  0.037770431   -1.1458636    1.3159764      1024000 
   61800     1.004114   -1.1480675   -1.1480675   0.17436075  0.037399235   -1.1480675    1.3224283      1024000 
   61900    1.0031927   -1.1445053   -1.1445053   0.17670963  0.031673446   -1.1445053    1.3212149      1024000 
   62000   0.99704857   -1.1419428   -1.1419428   0.17118025  0.031672845   -1.1419428     1.313123      1024000 
   62100    0.9949334   -1.1433459   -1.1433459   0.16699142  0.034642448   -1.1433459    1.3103373      1024000 
   62200   0.99924014   -1.1419028   -1.1419028   0.17410657  0.040671381   -1.1419028    1.3160094      1024000 
   62300     1.003392   -1.1412339   -1.1412339   0.18024355  0.035926675   -1.1412339    1.3214775      1024000 
   62400     1.000217   -1.1409919   -1.1409919   0.17630403   0.02329864   -1.1409919    1.3172959      1024000 
   62500   0.99749366   -1.1397099   -1.1397099   0.17399936  0.033368799   -1.1397099    1.3137092      1024000 
   62600    1.0002652   -1.1393852   -1.1393852   0.17797415  0.035141423   -1.1393852    1.3173594      1024000 
   62700    1.0059913   -1.1380011   -1.1380011   0.18689955  0.035139485   -1.1380011    1.3249007      1024000 
   62800    1.0102386   -1.1374938   -1.1374938   0.19300057  0.028488117   -1.1374938    1.3304944      1024000 
   62900   0.99972785   -1.1372398   -1.1372398   0.17941192  0.034275753   -1.1372398    1.3166517      1024000 
   63000   0.99744629   -1.1348339   -1.1348339    0.1788129  0.037288053   -1.1348339    1.3136468      1024000 
   63100    1.0014693   -1.1341964   -1.1341964    0.1847488  0.039023951   -1.1341964    1.3189452      1024000 
   63200    1.0052301   -1.1357172   -1.1357172   0.18818105  0.030008391   -1.1357172    1.3238983      1024000 
   63300    1.0000396   -1.1366091   -1.1366091   0.18045316  0.029752916   -1.1366091    1.3170623      1024000 
   63400   0.99774799    -1.138889    -1.138889   0.17515514  0.033785673    -1.138889    1.3140442      1024000 
[...]
  983700    1.0038202   -1.1567238   -1.1567238   0.16531753  0.037555142   -1.1567238    1.3220413      1024000 
  983800    1.0028808   -1.1548506   -1.1548506   0.16595358  0.038202867   -1.1548506    1.3208042      1024000 
  983900   0.99958614   -1.1562371   -1.1562371   0.16022792  0.035286237   -1.1562371     1.316465      1024000 
  984000   0.99766203   -1.1543207   -1.1543207   0.15961029  0.039138527   -1.1543207     1.313931      1024000 
  984100    1.0025754    -1.159423    -1.159423   0.16097896  0.035765948    -1.159423    1.3204019      1024000 
  984200   0.99957634   -1.1565771   -1.1565771   0.15987502   0.03684447   -1.1565771    1.3164521      1024000 
  984300     0.999319   -1.1599447   -1.1599447   0.15616853  0.036854102   -1.1599447    1.3161132      1024000 
  984400   0.99508876   -1.1623527   -1.1623527    0.1481892  0.037242189   -1.1623527    1.3105419      1024000 
  984500   0.99671512   -1.1602106   -1.1602106   0.15247325  0.043406554   -1.1602106    1.3126839      1024000 
  984600    1.0028754   -1.1598254   -1.1598254   0.16097172  0.038823013   -1.1598254    1.3207971      1024000 
  984700    1.0026759   -1.1614999   -1.1614999   0.15903438  0.031622039   -1.1614999    1.3205343      1024000 
  984800   0.99844253   -1.1616865   -1.1616865   0.15327235  0.038154222   -1.1616865    1.3149589      1024000 
  984900   0.99673814   -1.1610592   -1.1610592   0.15165496  0.038715323   -1.1610592    1.3127142      1024000 
  985000    1.0042645    -1.160392    -1.160392   0.16223445  0.034744316    -1.160392    1.3226264      1024000 
  985100    1.0067279   -1.1616206   -1.1616206   0.16425021  0.031881572   -1.1616206    1.3258708      1024000 
  985200    1.0013607     -1.16227     -1.16227   0.15653224  0.034640395     -1.16227    1.3188022      1024000 
  985300    0.9982384   -1.1615929   -1.1615929   0.15309712  0.039167178   -1.1615929    1.3146901      1024000 
  985400   0.99984374   -1.1636091   -1.1636091   0.15319518  0.037611979   -1.1636091    1.3168043      1024000 
  985500    1.0040168   -1.1651182   -1.1651182   0.15718203  0.035512054   -1.1651182    1.3223003      1024000 
  985600    1.0041896     -1.16342     -1.16342   0.15910792   0.03752378     -1.16342    1.3225279      1024000 
  985700   0.99690527   -1.1624737   -1.1624737    0.1504606  0.036284048   -1.1624737    1.3129343      1024000 
  985800   0.99673642   -1.1650945   -1.1650945   0.14761749  0.036847104   -1.1650945    1.3127119      1024000 
  985900    1.0015317   -1.1669827   -1.1669827   0.15204474  0.033986523   -1.1669827    1.3190274      1024000 
  986000    1.0053885   -1.1660351   -1.1660351   0.15807174  0.039439522   -1.1660351    1.3241068      1024000 
  986100    1.0023829   -1.1682531   -1.1682531   0.15189522   0.03892226   -1.1682531    1.3201483      1024000 
  986200   0.99350813   -1.1644658   -1.1644658   0.14399447  0.032350271   -1.1644658    1.3084602      1024000 
  986300   0.99763386   -1.1625272   -1.1625272   0.15136662  0.034938528   -1.1625272    1.3138939      1024000 
  986400    1.0033596   -1.1647154   -1.1647154   0.15671937   0.03881782   -1.1647154    1.3214348      1024000 
  986500    1.0009082   -1.1662974   -1.1662974   0.15190882  0.040115728   -1.1662974    1.3182062      1024000 
  986600   0.99660733   -1.1656711   -1.1656711   0.14687085  0.038009609   -1.1656711    1.3125419      1024000 
  986700   0.99956342   -1.1666724   -1.1666724   0.14976274  0.039285635   -1.1666724    1.3164351      1024000 
  986800    1.0065815   -1.1621517   -1.1621517   0.16352625  0.036169162   -1.1621517     1.325678      1024000 
  986900     1.003551   -1.1619595   -1.1619595   0.15972736  0.034499201   -1.1619595    1.3216868      1024000 
  987000    1.0004556    -1.165774    -1.165774   0.15183616  0.035416952    -1.165774    1.3176101      1024000 
  987100   0.99727666   -1.1648609   -1.1648609   0.14856256  0.033134107   -1.1648609    1.3134234      1024000 
  987200   0.99828424   -1.1620345   -1.1620345   0.15271594  0.037523366   -1.1620345    1.3147504      1024000 
  987300    1.0049747   -1.1632147   -1.1632147   0.16034706  0.033135908   -1.1632147    1.3235618      1024000 
  987400    1.0024905   -1.1632092   -1.1632092   0.15708096  0.038295156   -1.1632092    1.3202901      1024000 
  987500   0.99595969   -1.1661751   -1.1661751   0.14551382  0.034883058   -1.1661751     1.311689      1024000 
  987600   0.99769877    -1.163396    -1.163396   0.15058335  0.035715988    -1.163396    1.3139794      1024000 
  987700    1.0028932   -1.1641851   -1.1641851   0.15663528  0.035899314   -1.1641851    1.3208204      1024000 
  987800   0.99928426   -1.1599254   -1.1599254   0.15614207  0.039872221   -1.1599254    1.3160675      1024000 
  987900   0.99594069   -1.1593631   -1.1593631   0.15230088  0.035482432   -1.1593631     1.311664      1024000 
  988000   0.99552555   -1.1637939   -1.1637939   0.14732334  0.034029933   -1.1637939    1.3111172      1024000 
  988100   0.99883474   -1.1641296   -1.1641296    0.1513458  0.032281948   -1.1641296    1.3154754      1024000 
  988200    1.0050661    -1.165417    -1.165417   0.15826522  0.035873963    -1.165417    1.3236822      1024000 
  988300    1.0011821   -1.1646788   -1.1646788   0.15388816  0.037638107   -1.1646788     1.318567      1024000 
  988400   0.99581268   -1.1650073   -1.1650073   0.14648809  0.035643077   -1.1650073    1.3114954      1024000 
  988500   0.99792094   -1.1662751   -1.1662751   0.14799684  0.040043957   -1.1662751     1.314272      1024000 
  988600    1.0007133   -1.1684783   -1.1684783   0.14947121  0.039135203   -1.1684783    1.3179495      1024000 
  988700   0.99924631   -1.1675915   -1.1675915   0.14842598  0.038620452   -1.1675915    1.3160175      1024000 
  988800   0.99752126   -1.1670789   -1.1670789   0.14666671  0.037363048   -1.1670789    1.3137456      1024000 
  988900   0.99849564   -1.1679976   -1.1679976   0.14703123  0.038145142   -1.1679976    1.3150288      1024000 
  989000    1.0018828   -1.1643991   -1.1643991   0.15509065    0.0372764   -1.1643991    1.3194897      1024000 
  989100    1.0054984   -1.1663067   -1.1663067   0.15794481  0.036269655   -1.1663067    1.3242515      1024000 
  989200   0.99969291   -1.1663144   -1.1663144    0.1502913  0.035632504   -1.1663144    1.3166057      1024000 
  989300   0.99697898   -1.1664555   -1.1664555    0.1465759  0.038108397   -1.1664555    1.3130314      1024000 
  989400   0.99663828   -1.1623319   -1.1623319   0.15025077  0.037693324   -1.1623319    1.3125827      1024000 
  989500   0.99989531   -1.1623736   -1.1623736   0.15449864  0.035834313   -1.1623736    1.3168722      1024000 
  989600    1.0011075   -1.1609107   -1.1609107   0.15755797  0.038004779   -1.1609107    1.3184686      1024000 
  989700    1.0007847   -1.1591426   -1.1591426    0.1589009  0.036247004   -1.1591426    1.3180435      1024000 
  989800    1.0010582    -1.160963    -1.160963   0.15744069  0.037387205    -1.160963    1.3184037      1024000 
  989900   0.99634072   -1.1587342   -1.1587342   0.15345661  0.039955983   -1.1587342    1.3121908      1024000 
  990000   0.99989718   -1.1604588   -1.1604588   0.15641584  0.027727089   -1.1604588    1.3168747      1024000 
  990100    1.0052099   -1.1619782   -1.1619782   0.16189331  0.033376818   -1.1619782    1.3238715      1024000 
  990200    1.0021443   -1.1631241   -1.1631241   0.15671006  0.036733227   -1.1631241    1.3198341      1024000 
  990300   0.99801359   -1.1639553   -1.1639553   0.15043866  0.037214631   -1.1639553     1.314394      1024000 
  990400   0.99968941   -1.1651096   -1.1651096   0.15149148  0.033914239   -1.1651096     1.316601      1024000 
  990500    1.0036424   -1.1673376   -1.1673376   0.15446955   0.03565723   -1.1673376    1.3218071      1024000 
  990600    1.0019953    -1.167562    -1.167562   0.15207589  0.040390942    -1.167562    1.3196379      1024000 
  990700   0.99406654   -1.1676617   -1.1676617   0.14153399  0.042844827   -1.1676617    1.3091957      1024000 
  990800   0.99562186   -1.1678128   -1.1678128   0.14343121   0.03893789   -1.1678128     1.311244      1024000 
  990900    1.0026066    -1.170352    -1.170352    0.1500911  0.038710962    -1.170352     1.320443      1024000 
  991000    1.0023148   -1.1703196   -1.1703196    0.1497392  0.035535707   -1.1703196    1.3200588      1024000 
  991100   0.99935508   -1.1700035   -1.1700035   0.14615727  0.032668914   -1.1700035    1.3161607      1024000 
  991200   0.99901074   -1.1694285   -1.1694285   0.14627877  0.035362784   -1.1694285    1.3157072      1024000 
  991300    1.0006361   -1.1678714   -1.1678714   0.14997649  0.037357643   -1.1678714    1.3178479      1024000 
  991400    1.0024671   -1.1695231   -1.1695231   0.15073621  0.036678373   -1.1695231    1.3202593      1024000 
  991500   0.99916722   -1.1710007   -1.1710007   0.14491258  0.029576099   -1.1710007    1.3159133      1024000 
  991600   0.99137687   -1.1703441   -1.1703441   0.13530929  0.035914954   -1.1703441    1.3056534      1024000 
  991700   0.99585442   -1.1693518   -1.1693518   0.14219852  0.040194517   -1.1693518    1.3115503      1024000 
  991800    1.0013089   -1.1707606   -1.1707606   0.14797336   0.03821509   -1.1707606    1.3187339      1024000 
  991900    1.0017552   -1.1698444   -1.1698444   0.14947732  0.035716756   -1.1698444    1.3193218      1024000 
  992000    0.9975797   -1.1704611   -1.1704611   0.14336142  0.033758217   -1.1704611    1.3138225      1024000 
  992100   0.99850579   -1.1744371   -1.1744371   0.14060506   0.03598064   -1.1744371    1.3150422      1024000 
  992200    1.0032898    -1.171086    -1.171086   0.15025683  0.038170635    -1.171086    1.3213428      1024000 
  992300    1.0076683   -1.1737359   -1.1737359   0.15337344  0.036692283   -1.1737359    1.3271093      1024000 
  992400    1.0010993   -1.1749449   -1.1749449   0.14351302   0.03767891   -1.1749449    1.3184579      1024000 
  992500   0.99764109   -1.1742068   -1.1742068   0.13969663  0.041414413   -1.1742068    1.3139034      1024000 
  992600   0.99842979   -1.1744321   -1.1744321   0.14051004  0.038086874   -1.1744321    1.3149421      1024000 
  992700    1.0014527   -1.1725579   -1.1725579   0.14636542  0.037107479   -1.1725579    1.3189233      1024000 
  992800    1.0025726   -1.1688823   -1.1688823   0.15151597  0.035356968   -1.1688823    1.3203983      1024000 
  992900    1.0000566   -1.1689874   -1.1689874   0.14809719  0.035438231   -1.1689874    1.3170846      1024000 
  993000   0.99495333    -1.171171    -1.171171   0.13919257  0.035865282    -1.171171    1.3103636      1024000 
  993100   0.99550078   -1.1660109   -1.1660109   0.14507367  0.035604463   -1.1660109    1.3110846      1024000 
  993200    1.0001792   -1.1658821   -1.1658821   0.15136401  0.034185708   -1.1658821    1.3172461      1024000 
  993300    1.0014306   -1.1663739   -1.1663739   0.15252033  0.034637636   -1.1663739    1.3188943      1024000 
  993400    1.0022182    -1.170252    -1.170252   0.14967952  0.037328645    -1.170252    1.3199315      1024000 
  993500   0.99584423   -1.1706795   -1.1706795   0.14085741  0.037746808   -1.1706795    1.3115369      1024000 
  993600   0.99437785   -1.1698509   -1.1698509   0.13975479  0.034562621   -1.1698509    1.3096057      1024000 
  993700    1.0005489   -1.1720514   -1.1720514   0.14568153  0.033702466   -1.1720514     1.317733      1024000 
  993800    1.0010058   -1.1716711   -1.1716711   0.14666363  0.038544132   -1.1716711    1.3183348      1024000 
  993900    1.0004927   -1.1693324   -1.1693324   0.14832655  0.033616174   -1.1693324     1.317659      1024000 
  994000    1.0019362   -1.1679444   -1.1679444   0.15161562   0.03584116   -1.1679444    1.3195601      1024000 
  994100    1.0029473   -1.1670127   -1.1670127   0.15387895   0.03623259   -1.1670127    1.3208917      1024000 
  994200   0.99928433   -1.1670836   -1.1670836   0.14898394  0.037282954   -1.1670836    1.3160676      1024000 
  994300   0.99601671     -1.16854     -1.16854   0.14322405  0.036622823     -1.16854    1.3117641      1024000 
  994400   0.99899174   -1.1681808   -1.1681808   0.14750139  0.038109197   -1.1681808    1.3156822      1024000 
  994500    1.0032358    -1.166315    -1.166315    0.1549566  0.038866811    -1.166315    1.3212716      1024000 
  994600    1.0034816   -1.1686533   -1.1686533   0.15294213  0.035233361   -1.1686533    1.3215955      1024000 
  994700    1.0019376   -1.1694954   -1.1694954   0.15006655  0.035221664   -1.1694954     1.319562      1024000 
  994800   0.99910201   -1.1665067   -1.1665067   0.14932078   0.03926581   -1.1665067    1.3158274      1024000 
  994900    1.0007064    -1.167223    -1.167223   0.15071741  0.037659745    -1.167223    1.3179404      1024000 
  995000    1.0022981   -1.1665527   -1.1665527   0.15348395  0.036564985   -1.1665527    1.3200367      1024000 
  995100    1.0019507   -1.1662919   -1.1662919   0.15328726  0.037006554   -1.1662919    1.3195791      1024000 
  995200   0.99743541   -1.1674864   -1.1674864   0.14614614  0.037285411   -1.1674864    1.3136325      1024000 
  995300   0.99487626    -1.166487    -1.166487   0.14377505  0.036372604    -1.166487    1.3102621      1024000 
  995400    1.0017019   -1.1669762   -1.1669762   0.15227538   0.03787957   -1.1669762    1.3192515      1024000 
  995500    1.0057025   -1.1705088   -1.1705088   0.15401147  0.036459452   -1.1705088    1.3245203      1024000 
  995600    1.0011682   -1.1700051   -1.1700051    0.1485435  0.037248171   -1.1700051    1.3185486      1024000 
  995700   0.99729685   -1.1671779   -1.1671779   0.14627214  0.036005106   -1.1671779      1.31345      1024000 
  995800   0.99943494   -1.1665212   -1.1665212   0.14974475    0.0373295   -1.1665212    1.3162659      1024000 
  995900    1.0071603   -1.1690734   -1.1690734     0.157367  0.037968316   -1.1690734    1.3264404      1024000 
  996000    1.0040979   -1.1674794   -1.1674794   0.15492761  0.037212858   -1.1674794    1.3224071      1024000 
  996100    0.9954097   -1.1665807   -1.1665807   0.14438391  0.037197198   -1.1665807    1.3109646      1024000 
  996200   0.99958085   -1.1683441   -1.1683441   0.14811399  0.035623279   -1.1683441    1.3164581      1024000 
  996300    1.0012777   -1.1652538   -1.1652538   0.15343912   0.03527147   -1.1652538    1.3186929      1024000 
  996400    1.0019974   -1.1654534   -1.1654534   0.15418732  0.038490029   -1.1654534    1.3196407      1024000 
  996500   0.99533561   -1.1654128   -1.1654128   0.14545425  0.035454516   -1.1654128    1.3108671      1024000 
  996600   0.99313351    -1.165061    -1.165061   0.14290581  0.035772637    -1.165061    1.3079669      1024000 
  996700    1.0017719   -1.1678165   -1.1678165   0.15152724  0.035994845   -1.1678165    1.3193437      1024000 
  996800    1.0017273   -1.1671287   -1.1671287   0.15215624  0.036082697   -1.1671287    1.3192849      1024000 
  996900   0.99966712   -1.1674432   -1.1674432   0.14912853  0.041671662   -1.1674432    1.3165717      1024000 
  997000   0.99826609   -1.1691322   -1.1691322   0.14559431  0.034016369   -1.1691322    1.3147265      1024000 
  997100   0.99977784   -1.1681203   -1.1681203    0.1485972   0.03507263   -1.1681203    1.3167175      1024000 
  997200    1.0069844   -1.1704881   -1.1704881   0.15572056  0.036555407   -1.1704881    1.3262087      1024000 
  997300     1.000614   -1.1684569   -1.1684569    0.1493618  0.036688365   -1.1684569    1.3178187      1024000 
  997400   0.99605177   -1.1671237   -1.1671237   0.14468658  0.035964613   -1.1671237    1.3118102      1024000 
  997500   0.99823064   -1.1662996   -1.1662996   0.14838021  0.036851802   -1.1662996    1.3146798      1024000 
  997600    1.0031126   -1.1702572   -1.1702572   0.15085218  0.037607127   -1.1702572    1.3211094      1024000 
  997700   0.99872421   -1.1676631   -1.1676631   0.14766682  0.037695673   -1.1676631    1.3153299      1024000 
  997800   0.99800645   -1.1688275   -1.1688275   0.14555704  0.037991619   -1.1688275    1.3143846      1024000 
  997900   0.99895344    -1.168903    -1.168903   0.14672874  0.036171799    -1.168903    1.3156318      1024000 
  998000    1.0034557   -1.1696187   -1.1696187   0.15194261  0.038389594   -1.1696187    1.3215613      1024000 
  998100    1.0022494   -1.1704639   -1.1704639   0.14950872   0.03884568   -1.1704639    1.3199726      1024000 
  998200    0.9964694   -1.1695161   -1.1695161   0.14284416  0.036039266   -1.1695161    1.3123603      1024000 
  998300   0.99632328   -1.1670729   -1.1670729   0.14509492  0.036064735   -1.1670729    1.3121678      1024000 
  998400    1.0029825   -1.1670658   -1.1670658   0.15387235  0.036520421   -1.1670658    1.3209381      1024000 
  998500    1.0022334   -1.1663558   -1.1663558    0.1535957  0.036979593   -1.1663558    1.3199515      1024000 
  998600   0.99923159   -1.1657802   -1.1657802   0.15021786  0.036485305   -1.1657802    1.3159981      1024000 
  998700   0.99920847   -1.1661302   -1.1661302   0.14983742    0.0362454   -1.1661302    1.3159676      1024000 
  998800   0.99958975   -1.1646814   -1.1646814   0.15178838  0.038611499   -1.1646814    1.3164698      1024000 
  998900    1.0074025   -1.1645911   -1.1645911   0.16216812  0.038915252   -1.1645911    1.3267592      1024000 
  999000    1.0057211   -1.1646696   -1.1646696   0.15987519  0.036860577   -1.1646696    1.3245448      1024000 
  999100   0.99855632   -1.1644173   -1.1644173   0.15069146  0.034240149   -1.1644173    1.3151088      1024000 
  999200   0.99729506   -1.1653519   -1.1653519    0.1480958  0.037404433   -1.1653519    1.3134477      1024000 
  999300    1.0000502   -1.1661543   -1.1661543   0.15092198  0.035718105   -1.1661543    1.3170762      1024000 
  999400    1.0048823   -1.1668496   -1.1668496   0.15659054  0.038724593   -1.1668496    1.3234401      1024000 
  999500    1.0049567   -1.1681268   -1.1681268   0.15541131  0.036902263   -1.1681268    1.3235381      1024000 
  999600   0.99840515   -1.1703827   -1.1703827   0.14452695  0.036060092   -1.1703827    1.3149097      1024000 
  999700   0.99949616   -1.1716805   -1.1716805   0.14466604   0.03649981   -1.1716805    1.3163465      1024000 
  999800   0.99957683   -1.1683021   -1.1683021   0.14815068  0.038299664   -1.1683021    1.3164528      1024000 
  999900    1.0040175   -1.1697593   -1.1697593   0.15254186  0.039043496   -1.1697593    1.3223012      1024000 
 1000000    1.0030149   -1.1708698   -1.1708698   0.15011099  0.036500633   -1.1708698    1.3209807      1024000 
Loop time of 21947.4 on 4 procs for 1000000 steps with 74832 atoms

Performance: 9841.717 tau/day, 45.564 timesteps/s
83.0% CPU use with 4 MPI tasks x 1 OpenMP threads

MPI task timing breakdown:
Section |  min time  |  avg time  |  max time  |%varavg|  %CPU | %total
-----------------------------------------------------------------------
Pair    | 8391.4     | 10706      | 13903      |2237.9 |  95.5 | 48.78
Bond    | 0.59754    | 0.74123    | 0.88793    |  12.0 | 100.0 |  0.00
Neigh   | 2331.6     | 3710.4     | 5333.1     |1811.3 |  99.0 | 16.91
Comm    | 916.54     | 5113.6     | 8418.5     |3946.8 |  59.5 | 23.30
Output  | 11.081     | 11.174     | 11.334     |   3.1 | 100.0 |  0.05
Modify  | 1438.5     | 2206.8     | 4227.4     |2488.7 |  72.6 | 10.05
Other   |            | 198.4      |            |       |       |  0.90

Nlocal:    18708 ave 19242 max 17630 min
Histogram: 1 0 0 0 0 0 0 0 2 1
Nghost:    16685.2 ave 21004 max 11692 min
Histogram: 1 0 1 0 0 0 0 0 1 1
Neighs:    619202 ave 707410 max 548618 min
Histogram: 1 0 0 1 1 0 0 0 0 1

Total # of neighbors = 2476810
Ave neighs/atom = 33.0983
Ave special neighs/atom = 0
Neighbor list builds = 62187
Dangerous builds = 0
Total wall time: 6:05:49
