LAMMPS (24 Dec 2020)
OMP_NUM_THREADS environment is not set. Defaulting to 1 thread. (src/comm.cpp:94)
  using 1 OpenMP thread(s) per MPI task
Created orthogonal box = (0.0000000 0.0000000 0.0000000) to (80.000000 80.000000 160.00000)
  6 by 4 by 8 MPI processor grid
Lattice spacing in x,y,z = 1.1485556 1.1485556 1.1485556
Created 421400 atoms
  create_atoms CPU = 0.148 seconds
Lattice spacing in x,y,z = 2.8114422 2.8114422 2.8114422
Created 17661 atoms
  create_atoms CPU = 0.005 seconds
439061 atoms in group solvent
System init for delete_atoms ...
Neighbor list info ...
  update every 1 steps, delay 10 steps, check yes
  max neighbors/atom: 2000, page size: 100000
  master list distance cutoff = 2.9
  ghost atom cutoff = 2.9
  binsize = 1.45, bins = 56 56 111
  2 neighbor lists, perpetual/occasional/extra = 1 1 0
  (1) command delete_atoms, occasional
      attributes: full, newton on
      pair build: full/bin
      stencil: full/bin/3d
      bin: standard
  (2) pair lj/smooth/linear, perpetual
      attributes: half, newton on
      pair build: half/bin/newton
      stencil: half/bin/3d/newton
      bin: standard
WARNING: Ignoring 'compress yes' for molecular system (src/delete_atoms.cpp:125)
Deleted 0 atoms, new total = 439061
Balancing ...
Neighbor list info ...
  update every 1 steps, delay 10 steps, check yes
  max neighbors/atom: 2000, page size: 100000
  master list distance cutoff = 2.9
  ghost atom cutoff = 2.9
  binsize = 1.45, bins = 56 56 111
  1 neighbor lists, perpetual/occasional/extra = 1 0 0
  (1) pair lj/smooth/linear, perpetual
      attributes: half, newton on
      pair build: half/bin/newton
      stencil: half/bin/3d/newton
      bin: standard
 rebalancing time: 0.006 seconds
  iteration count = 5
  initial/final maximal load/proc = 3888.0000 2808.0000
  initial/final imbalance factor  = 1.7002102 1.2279296
  x cuts: 0.0000000 0.16666667 0.33333333 0.50000000 0.66666667 0.83333333 1.0000000
  y cuts: 0.0000000 0.25000000 0.50000000 0.75000000 1.0000000
  z cuts: 0.0000000 0.089843750 0.17578125 0.25390625 0.33593750 0.41406250 0.50390625 0.58203125 1.0000000
dynamic group thermo defined
New timer settings: style=full  mode=nosync  timeout=off
Setting up Verlet run ...
  Unit style    : lj
  Current step  : 0
  Time step     : 0.005
Per MPI rank memory allocation (min/avg/max) = 9.982 | 10.06 | 10.45 Mbytes
Step Temp E_pair E_vdwl TotEng Press PotEng KinEng Atoms 
       0          0.9  -0.77633128  -0.77633128   0.57366565    4.1734644  -0.77633128    1.3499969   439061 
    1000    1.9239228   -2.7932801   -2.7932801  0.092597574    2.1223787   -2.7932801    2.8858776   439061 
    2000    1.8060277   -2.8005404   -2.8005404  -0.09150501     1.261558   -2.8005404    2.7090354   439061 
    3000     1.633224   -2.6973653   -2.6973653  -0.24753482    0.9306585   -2.6973653    2.4498305   439061 
    4000    1.5442072   -2.6695391   -2.6695391  -0.35323365   0.72686547   -2.6695391    2.3163055   439061 
    5000    1.4920484   -2.6337689   -2.6337689  -0.39570143    0.5841552   -2.6337689    2.2380675   439061 
    6000    1.4592737   -2.5893568   -2.5893568  -0.40045113   0.48983958   -2.5893568    2.1889056   439061 
    7000     1.434006   -2.5403812   -2.5403812  -0.38937718   0.47957936   -2.5403812    2.1510041   439061 
    8000    1.4211995   -2.5038544   -2.5038544  -0.37205996   0.50874393   -2.5038544    2.1317944   439061 
    9000    1.4229288   -2.4902402   -2.4902402  -0.35585193   0.54330587   -2.4902402    2.1343883   439061 
   10000     1.432219   -2.4876978   -2.4876978   -0.3393742    0.5982978   -2.4876978    2.1483236   439061 
   11000    1.4412039   -2.4893239   -2.4893239  -0.32752289   0.62531826   -2.4893239     2.161801   439061 
   12000    1.4454659   -2.4845475   -2.4845475   -0.3163537   0.63206733   -2.4845475    2.1681939   439061 
   13000    1.4370481   -2.4635259   -2.4635259  -0.30795861   0.60919934   -2.4635259    2.1555672   439061 
   14000    1.4179088   -2.4270988   -2.4270988  -0.30024042   0.54951318   -2.4270988    2.1268584   439061 
   15000    1.3984586   -2.3921005   -2.3921005  -0.29441729   0.50294501   -2.3921005    2.0976832   439061 
   16000    1.3824111   -2.3620691   -2.3620691  -0.28845716   0.47846295   -2.3620691     2.073612   439061 
   17000    1.3819528   -2.3566295   -2.3566295  -0.28370504   0.48374392   -2.3566295    2.0729244   439061 
   18000     1.378001   -2.3656035   -2.3656035   -0.2986068   0.50843886   -2.3656035    2.0669967   439061 
   19000    1.3632578   -2.3857777   -2.3857777  -0.34089568    0.5417427   -2.3857777     2.044882   439061 
   20000    1.3396011   -2.4116987   -2.4116987  -0.40230164   0.54990911   -2.4116987     2.009397   439061 
   21000    1.3171884   -2.4313181   -2.4313181  -0.45553996   0.54704428   -2.4313181    1.9757781   439061 
   22000    1.3029391   -2.4513236   -2.4513236  -0.49691938    0.5410107   -2.4513236    1.9544042   439061 
   23000    1.2924153   -2.4687971   -2.4687971  -0.53017856   0.54894981   -2.4687971    1.9386186   439061 
   24000    1.2851845   -2.4853537   -2.4853537  -0.55758125   0.53859823   -2.4853537    1.9277724   439061 
   25000    1.2768124   -2.4953172   -2.4953172  -0.58010301   0.53573833   -2.4953172    1.9152142   439061 
   26000     1.267493   -2.4977236   -2.4977236  -0.59648845   0.51422678   -2.4977236    1.9012351   439061 
   27000    1.2542874   -2.4926022   -2.4926022  -0.61117541   0.49400926   -2.4926022    1.8814268   439061 
   28000    1.2423574   -2.4842507   -2.4842507  -0.62071887   0.46707392   -2.4842507    1.8635318   439061 
   29000    1.2320328   -2.4738438   -2.4738438   -0.6257988   0.43944188   -2.4738438     1.848045   439061 
   30000    1.2187502   -2.4580289   -2.4580289  -0.62990784   0.41342329   -2.4580289    1.8281211   439061 
   31000    1.2059386   -2.4403731   -2.4403731  -0.63146926   0.38710117   -2.4403731    1.8089038   439061 
   32000    1.1928364   -2.4224049   -2.4224049  -0.63315437   0.36736721   -2.4224049    1.7892506   439061 
   33000    1.1854526   -2.4103213   -2.4103213  -0.63214645   0.34855794   -2.4103213    1.7781748   439061 
   34000    1.1801551   -2.3996396   -2.3996396  -0.62941095   0.34498913   -2.3996396    1.7702286   439061 
   35000    1.1777199   -2.3941146   -2.3941146  -0.62753884   0.32642364   -2.3941146    1.7665758   439061 
   36000    1.1760286   -2.3880546   -2.3880546  -0.62401573   0.32764064   -2.3880546    1.7640389   439061 
   37000     1.176617   -2.3834169   -2.3834169  -0.61849548   0.32975183   -2.3834169    1.7649214   439061 
   38000    1.1780298   -2.3807582   -2.3807582  -0.61371753   0.33242038   -2.3807582    1.7670407   439061 
   39000    1.1782325   -2.3765838   -2.3765838  -0.60923912   0.33129733   -2.3765838    1.7673447   439061 
   40000    1.1786649   -2.3726913   -2.3726913  -0.60469796   0.33513646   -2.3726913    1.7679933   439061 
   41000     1.178021   -2.3671566   -2.3671566  -0.60012914   0.33106275   -2.3671566    1.7670275   439061 
   42000    1.1769726   -2.3603475   -2.3603475  -0.59489257   0.32089679   -2.3603475    1.7654549   439061 
   43000    1.1741168   -2.3526828   -2.3526828  -0.59151159   0.31814851   -2.3526828    1.7611712   439061 
   44000    1.1741481   -2.3485668   -2.3485668  -0.58734867   0.31115799   -2.3485668    1.7612181   439061 
   45000    1.1729825   -2.3441035   -2.3441035  -0.58463364   0.30810013   -2.3441035    1.7594698   439061 
   46000    1.1774549   -2.3487855   -2.3487855  -0.58260715   0.31822596   -2.3487855    1.7661784   439061 
   47000     1.176917   -2.3549129   -2.3549129  -0.58954148   0.33588641   -2.3549129    1.7653715   439061 
   48000    1.1760381   -2.3670518   -2.3670518  -0.60299861   0.34575629   -2.3670518    1.7640531   439061 
   49000    1.1718759   -2.3795587   -2.3795587  -0.62174888   0.35644632   -2.3795587    1.7578098   439061 
   50000    1.1667853   -2.3912025   -2.3912025  -0.64102856   0.35234519   -2.3912025     1.750174   439061 
   51000    1.1636195   -2.3988096   -2.3988096  -0.65338442   0.35666137   -2.3988096    1.7454252   439061 
   52000    1.1615144   -2.4086134   -2.4086134  -0.66634579   0.35161869   -2.4086134    1.7422676   439061 
   53000    1.1578749   -2.4126048   -2.4126048  -0.67579641   0.35307832   -2.4126048    1.7368084   439061 
   54000    1.1560553   -2.4179854   -2.4179854  -0.68390628   0.35103734   -2.4179854    1.7340791   439061 
   55000    1.1540183   -2.4239322   -2.4239322  -0.69290872   0.34568962   -2.4239322    1.7310235   439061 
   56000    1.1517305    -2.426088    -2.426088  -0.69849615    0.3455609    -2.426088    1.7275918   439061 
   57000    1.1469633   -2.4256711   -2.4256711  -0.70523004   0.34462191   -2.4256711    1.7204411   439061 
   58000    1.1437232   -2.4261192   -2.4261192  -0.71053828   0.33235755   -2.4261192     1.715581   439061 
   59000    1.1379341   -2.4202364   -2.4202364  -0.71333918   0.32522804   -2.4202364    1.7068972   439061 
   60000    1.1330412   -2.4151908   -2.4151908   -0.7156329   0.31715466   -2.4151908    1.6995579   439061 
   61000    1.1267219   -2.4083485   -2.4083485  -0.71826956   0.30771794   -2.4083485    1.6900789   439061 
   62000     1.123391   -2.4041133   -2.4041133  -0.71903061   0.29759721   -2.4041133    1.6850827   439061 
   63000    1.1182955   -2.3964621   -2.3964621  -0.71902265   0.28800793   -2.3964621    1.6774395   439061 
   64000    1.1161729   -2.3914886   -2.3914886  -0.71723314   0.28725063   -2.3914886    1.6742555   439061 
   65000    1.1149883   -2.3892243   -2.3892243  -0.71674574   0.27826785   -2.3892243    1.6724786   439061 
   66000    1.1125024   -2.3849031   -2.3849031  -0.71615331   0.26877807   -2.3849031    1.6687498   439061 
   67000    1.1129009   -2.3835544   -2.3835544  -0.71420689   0.27272063   -2.3835544    1.6693475   439061 
   68000    1.1113411   -2.3795434   -2.3795434  -0.71253559   0.26759018   -2.3795434    1.6670078   439061 
   69000     1.110505   -2.3756512   -2.3756512  -0.70989752   0.26948553   -2.3756512    1.6657537   439061 
   70000    1.1111831   -2.3731899   -2.3731899  -0.70641906   0.26208817   -2.3731899    1.6667709   439061 
   71000    1.1119582   -2.3714187   -2.3714187  -0.70348523   0.26077682   -2.3714187    1.6679334   439061 
   72000    1.1114189   -2.3678091   -2.3678091  -0.70068456   0.25964459   -2.3678091    1.6671245   439061 
   73000    1.1102681    -2.363837    -2.363837  -0.69843863   0.26133428    -2.363837    1.6653984   439061 
   74000    1.1117183   -2.3639318   -2.3639318  -0.69635808   0.26298887   -2.3639318    1.6675737   439061 
   75000    1.1112888   -2.3622469   -2.3622469  -0.69531753   0.26341398   -2.3622469    1.6669294   439061 
   76000    1.1142331   -2.3660221   -2.3660221  -0.69467621   0.26110161   -2.3660221    1.6713459   439061 
   77000    1.1143704    -2.366979    -2.366979  -0.69542719   0.26985258    -2.366979    1.6715518   439061 
   78000    1.1151596   -2.3720751   -2.3720751  -0.69933947   0.27619841   -2.3720751    1.6727356   439061 
   79000     1.116211   -2.3784005   -2.3784005   -0.7040878   0.27937932   -2.3784005    1.6743127   439061 
   80000    1.1150342   -2.3857177   -2.3857177  -0.71317009   0.28700025   -2.3857177    1.6725476   439061 
   81000    1.1143964   -2.3930768   -2.3930768  -0.72148602   0.29476198   -2.3930768    1.6715907   439061 
   82000    1.1122313    -2.399442    -2.399442  -0.73109889   0.29222047    -2.399442    1.6683431   439061 
   83000    1.1107105    -2.403043    -2.403043  -0.73698104   0.29113242    -2.403043    1.6660619   439061 
   84000    1.1098547   -2.4086432   -2.4086432  -0.74386484   0.28862256   -2.4086432    1.6647783   439061 
   85000    1.1072091   -2.4108673   -2.4108673  -0.75005743   0.28833801   -2.4108673    1.6608098   439061 
   86000    1.1058078   -2.4141427   -2.4141427  -0.75543475   0.28376924   -2.4141427    1.6587079   439061 
   87000    1.1041812   -2.4161253   -2.4161253  -0.75985726   0.28593867   -2.4161253    1.6562681   439061 
   88000    1.1037257   -2.4197577   -2.4197577  -0.76417297   0.28260694   -2.4197577    1.6555848   439061 
   89000    1.1012432   -2.4174565   -2.4174565  -0.76559543   0.28139473   -2.4174565    1.6518611   439061 
   90000    1.0990454   -2.4170911   -2.4170911  -0.76852676    0.2795778   -2.4170911    1.6485643   439061 
   91000    1.0971162    -2.417117    -2.417117  -0.77144654   0.27350383    -2.417117    1.6456705   439061 
   92000    1.0930362   -2.4116163   -2.4116163  -0.77206572   0.27005149   -2.4116163    1.6395506   439061 
   93000    1.0920181   -2.4118977   -2.4118977   -0.7738743     0.264992   -2.4118977    1.6380234   439061 
   94000    1.0880079    -2.405526    -2.405526  -0.77351782   0.26415559    -2.405526    1.6320081   439061 
   95000    1.0868063   -2.4045303   -2.4045303  -0.77432453    0.2562731   -2.4045303    1.6302058   439061 
   96000    1.0865075   -2.4020349   -2.4020349  -0.77227749   0.25532381   -2.4020349    1.6297575   439061 
   97000    1.0844717   -2.3992603   -2.3992603  -0.77255645   0.25461864   -2.3992603    1.6267039   439061 
   98000    1.0840777   -2.3963752   -2.3963752  -0.77026236   0.24247366   -2.3963752    1.6261128   439061 
   99000    1.0826532   -2.3936327   -2.3936327  -0.76965656   0.24667162   -2.3936327    1.6239761   439061 
  100000    1.0816734   -2.3930301   -2.3930301  -0.77052377   0.23913021   -2.3930301    1.6225063   439061 
  101000     1.078576     -2.38786     -2.38786  -0.76999971   0.23812407     -2.38786    1.6178602   439061 
  102000    1.0802821   -2.3892412   -2.3892412  -0.76882176    0.2379527   -2.3892412    1.6204195   439061 
  103000    1.0819365   -2.3892557   -2.3892557  -0.76635474   0.23152467   -2.3892557     1.622901   439061 
  104000    1.0792858   -2.3845119   -2.3845119  -0.76558694   0.24048596   -2.3845119     1.618925   439061 
  105000    1.0813736   -2.3862773   -2.3862773  -0.76422056   0.23759705   -2.3862773    1.6220568   439061 
  106000    1.0815874   -2.3865327   -2.3865327  -0.76415535   0.23065363   -2.3865327    1.6223773   439061 
  107000    1.0817452    -2.386562    -2.386562   -0.7639478   0.24187828    -2.386562    1.6226141   439061 
  108000    1.0832339   -2.3903727   -2.3903727  -0.76552557   0.24039599   -2.3903727    1.6248471   439061 
  109000    1.0830882   -2.3911547   -2.3911547  -0.76652604   0.24550338   -2.3911547    1.6246287   439061 
  110000    1.0826519   -2.3932011   -2.3932011  -0.76922703   0.24779368   -2.3932011    1.6239741   439061 
  111000    1.0826988   -2.3954746   -2.3954746  -0.77143006   0.25445588   -2.3954746    1.6240445   439061 
  112000    1.0841735   -2.4016955   -2.4016955   -0.7754389   0.25453766   -2.4016955    1.6262566   439061 
  113000    1.0838047   -2.4048007   -2.4048007   -0.7790974   0.25285656   -2.4048007    1.6257033   439061 
  114000    1.0837506   -2.4080962   -2.4080962  -0.78247396   0.25476542   -2.4080962    1.6256222   439061 
  115000    1.0821078    -2.409731    -2.409731  -0.78657303   0.25875874    -2.409731    1.6231579   439061 
  116000    1.0798423   -2.4117002   -2.4117002  -0.79194048   0.25985478   -2.4117002    1.6197598   439061 
  117000     1.080166   -2.4150839   -2.4150839  -0.79483849   0.26109969   -2.4150839    1.6202454   439061 
  118000    1.0804885   -2.4187461   -2.4187461  -0.79801699   0.25969997   -2.4187461    1.6207291   439061 
  119000    1.0801076   -2.4204365   -2.4204365  -0.80027876   0.25562473   -2.4204365    1.6201578   439061 
  120000    1.0772532   -2.4197634   -2.4197634  -0.80388728   0.25379573   -2.4197634    1.6158761   439061 
  121000    1.0760406   -2.4195678   -2.4195678  -0.80551062   0.25398265   -2.4195678    1.6140572   439061 
  122000    1.0748097   -2.4211025   -2.4211025  -0.80889156   0.25144525   -2.4211025    1.6122109   439061 
  123000    1.0713874   -2.4175081   -2.4175081  -0.81043059   0.25095077   -2.4175081    1.6070775   439061 
  124000     1.072155   -2.4190082   -2.4190082   -0.8107794   0.24456507   -2.4190082    1.6082288   439061 
  125000    1.0707896   -2.4176922   -2.4176922  -0.81151152   0.24287023   -2.4176922    1.6061807   439061 
  126000    1.0691056   -2.4155944   -2.4155944  -0.81193974   0.24113502   -2.4155944    1.6036547   439061 
  127000    1.0686902   -2.4143199   -2.4143199  -0.81128822   0.23410729   -2.4143199    1.6030317   439061 
  128000    1.0678256   -2.4135979   -2.4135979  -0.81186322   0.23467251   -2.4135979    1.6017347   439061 
  129000    1.0666815   -2.4122299   -2.4122299  -0.81221136   0.23518977   -2.4122299    1.6000185   439061 
  130000    1.0645913   -2.4089041   -2.4089041  -0.81202074   0.23272849   -2.4089041    1.5968833   439061 
  131000    1.0635186   -2.4062434   -2.4062434  -0.81096909    0.2323083   -2.4062434    1.5952743   439061 
  132000    1.0645426   -2.4073909   -2.4073909  -0.81058063   0.22633363   -2.4073909    1.5968102   439061 
  133000     1.063298   -2.4031861   -2.4031861  -0.80824273   0.22469219   -2.4031861    1.5949434   439061 
  134000    1.0644001   -2.4043025   -2.4043025  -0.80770593    0.2264327   -2.4043025    1.5965966   439061 
  135000    1.0634065   -2.4039007   -2.4039007  -0.80879455   0.22812507   -2.4039007    1.5951062   439061 
  136000    1.0622901   -2.4008883   -2.4008883  -0.80745685   0.22465803   -2.4008883    1.5934315   439061 
  137000    1.0628496   -2.4015152   -2.4015152   -0.8072444   0.22825466   -2.4015152    1.5942708   439061 
  138000    1.0651706   -2.4045054   -2.4045054  -0.80675307   0.22131664   -2.4045054    1.5977523   439061 
  139000    1.0648788   -2.4039901   -2.4039901  -0.80667547   0.23014037   -2.4039901    1.5973146   439061 
  140000    1.0647776   -2.4040412   -2.4040412  -0.80687845    0.2287377   -2.4040412    1.5971627   439061 
  141000    1.0664762   -2.4076088   -2.4076088  -0.80789814   0.22677962   -2.4076088    1.5997107   439061 
  142000    1.0652766   -2.4080811   -2.4080811  -0.81016981   0.23429997   -2.4080811    1.5979113   439061 
  143000    1.0660992   -2.4124957   -2.4124957  -0.81335051   0.23369892   -2.4124957    1.5991452   439061 
  144000    1.0658842   -2.4124916   -2.4124916  -0.81366899   0.23500915   -2.4124916    1.5988226   439061 
  145000    1.0660444   -2.4141304   -2.4141304  -0.81506743   0.23856021   -2.4141304     1.599063   439061 
  146000    1.0646255   -2.4154826   -2.4154826  -0.81854807    0.2380505   -2.4154826    1.5969346   439061 
  147000    1.0659416   -2.4196275   -2.4196275  -0.82071863   0.23568819   -2.4196275    1.5989088   439061 
  148000    1.0648152   -2.4201355   -2.4201355  -0.82291634   0.23647676   -2.4201355    1.5972192   439061 
  149000    1.0652197   -2.4224906   -2.4224906  -0.82466468   0.23208124   -2.4224906     1.597826   439061 
  150000    1.0642099   -2.4235498   -2.4235498  -0.82723859   0.23477514   -2.4235498    1.5963112   439061 
  151000    1.0649355    -2.425957    -2.425957  -0.82855742   0.23744758    -2.425957    1.5973995   439061 
  152000    1.0618415   -2.4239667   -2.4239667   -0.8312081   0.23571282   -2.4239667    1.5927586   439061 
  153000    1.0620252   -2.4249554   -2.4249554  -0.83192122   0.23839362   -2.4249554    1.5930342   439061 
  154000    1.0610656   -2.4258886   -2.4258886   -0.8342938   0.22977576   -2.4258886    1.5915948   439061 
  155000    1.0598542   -2.4264439   -2.4264439  -0.83666621   0.23120642   -2.4264439    1.5897777   439061 
  156000    1.0598846   -2.4274335   -2.4274335  -0.83761028   0.22871965   -2.4274335    1.5898232   439061 
  157000    1.0574381   -2.4263578   -2.4263578  -0.84020418   0.22554226   -2.4263578    1.5861536   439061 
  158000    1.0558405    -2.423913    -2.423913  -0.84015582    0.2273967    -2.423913    1.5837571   439061 
  159000    1.0543777   -2.4228115   -2.4228115  -0.84124852   0.22430337   -2.4228115     1.581563   439061 
  160000    1.0543529   -2.4232595   -2.4232595  -0.84173377   0.21726471   -2.4232595    1.5815258   439061 
  161000    1.0545744    -2.423077    -2.423077  -0.84121899   0.22034769    -2.423077     1.581858   439061 
  162000    1.0538322   -2.4212536   -2.4212536  -0.84050893   0.21523546   -2.4212536    1.5807447   439061 
  163000    1.0534277   -2.4205933   -2.4205933  -0.84045535   0.22195924   -2.4205933     1.580138   439061 
  164000    1.0523637   -2.4190624   -2.4190624  -0.84052042   0.21904943   -2.4190624    1.5785419   439061 
  165000    1.0526089   -2.4213051   -2.4213051  -0.84239528   0.21525712   -2.4213051    1.5789098   439061 
  166000    1.0509831   -2.4204734   -2.4204734  -0.84400226   0.21251512   -2.4204734    1.5764711   439061 
  167000    1.0524639   -2.4215926   -2.4215926  -0.84290035   0.21514451   -2.4215926    1.5786922   439061 
  168000    1.0520257   -2.4195638   -2.4195638  -0.84152886   0.21266219   -2.4195638    1.5780349   439061 
  169000    1.0498357   -2.4182974   -2.4182974  -0.84354745   0.22149547   -2.4182974      1.57475   439061 
  170000    1.0501733   -2.4201236   -2.4201236  -0.84486717   0.21455064   -2.4201236    1.5752564   439061 
  171000    1.0504074   -2.4191421   -2.4191421  -0.84353463   0.21317678   -2.4191421    1.5756075   439061 
  172000    1.0522013   -2.4224025   -2.4224025  -0.84410411   0.21696957   -2.4224025    1.5782984   439061 
  173000    1.0506507   -2.4208743   -2.4208743  -0.84490189   0.22061374   -2.4208743    1.5759724   439061 
  174000    1.0501516   -2.4223334   -2.4223334  -0.84710963    0.2159689   -2.4223334    1.5752237   439061 
  175000    1.0521259   -2.4269274   -2.4269274  -0.84874223   0.21401386   -2.4269274    1.5781852   439061 
  176000    1.0504516   -2.4251852   -2.4251852  -0.84951129   0.22061204   -2.4251852    1.5756739   439061 
  177000    1.0512362   -2.4281574   -2.4281574  -0.85130671   0.22032322   -2.4281574    1.5768507   439061 
  178000    1.0508411   -2.4293704   -2.4293704   -0.8531123   0.22007467   -2.4293704    1.5762581   439061 
  179000     1.050462   -2.4321577   -2.4321577  -0.85646834   0.21376428   -2.4321577    1.5756893   439061 
  180000    1.0488265   -2.4315461   -2.4315461     -0.85831    0.2223793   -2.4315461    1.5732361   439061 
  181000    1.0489499   -2.4341138   -2.4341138  -0.86069263   0.21837439   -2.4341138    1.5734212   439061 
  182000    1.0471142   -2.4335872   -2.4335872  -0.86291948   0.22007947   -2.4335872    1.5706677   439061 
  183000     1.047227   -2.4359512   -2.4359512  -0.86511424    0.2201876   -2.4359512    1.5708369   439061 
  184000    1.0478721   -2.4372328   -2.4372328  -0.86542833   0.22461841   -2.4372328    1.5718045   439061 
  185000    1.0467435   -2.4369683   -2.4369683  -0.86685669   0.22195075   -2.4369683    1.5701116   439061 
  186000    1.0464326   -2.4380551   -2.4380551  -0.86840978    0.2177762   -2.4380551    1.5696453   439061 
  187000    1.0466277   -2.4383152   -2.4383152  -0.86837716   0.21488867   -2.4383152     1.569938   439061 
  188000    1.0446546   -2.4355605   -2.4355605  -0.86858216   0.22045389   -2.4355605    1.5669784   439061 
  189000    1.0460677   -2.4387406   -2.4387406  -0.86964262    0.2131848   -2.4387406    1.5690979   439061 
  190000    1.0431845   -2.4360886   -2.4360886  -0.87131539   0.21638976   -2.4360886    1.5647732   439061 
  191000    1.0432975   -2.4349348   -2.4349348  -0.86999212   0.21555542   -2.4349348    1.5649426   439061 
  192000    1.0419035   -2.4347439   -2.4347439  -0.87189213   0.21339797   -2.4347439    1.5628518   439061 
  193000    1.0437709   -2.4368897   -2.4368897  -0.87123684   0.21101775   -2.4368897    1.5656529   439061 
  194000    1.0433434    -2.437751    -2.437751  -0.87273948    0.2077217    -2.437751    1.5650115   439061 
  195000    1.0414296   -2.4342235   -2.4342235  -0.87208267   0.21158951   -2.4342235    1.5621408   439061 
  196000    1.0433036   -2.4362504   -2.4362504  -0.87129849    0.2097508   -2.4362504    1.5649519   439061 
  197000    1.0420187   -2.4355205   -2.4355205  -0.87249606   0.20945995   -2.4355205    1.5630245   439061 
  198000    1.0417087   -2.4360947   -2.4360947  -0.87353516   0.20636742   -2.4360947    1.5625595   439061 
  199000     1.040679    -2.435925    -2.435925  -0.87491005   0.20582864    -2.435925    1.5610149   439061 
  200000    1.0400593   -2.4349169   -2.4349169  -0.87483156   0.20952968   -2.4349169    1.5600854   439061 
  201000    1.0391054   -2.4334567   -2.4334567  -0.87480216    0.2073684   -2.4334567    1.5586546   439061 
  202000    1.0399227   -2.4350227   -2.4350227  -0.87514227   0.20644238   -2.4350227    1.5598804   439061 
  203000    1.0397054   -2.4355992   -2.4355992  -0.87604461   0.20923816   -2.4355992    1.5595546   439061 
  204000    1.0419498   -2.4396009   -2.4396009  -0.87667972   0.20246788   -2.4396009    1.5629212   439061 
  205000    1.0374561    -2.434357    -2.434357  -0.87817641   0.20263238    -2.434357    1.5561806   439061 
  206000     1.038994   -2.4373763   -2.4373763  -0.87888877   0.20670509   -2.4373763    1.5584875   439061 
  207000    1.0383617   -2.4372221   -2.4372221  -0.87968299   0.20685425   -2.4372221    1.5575391   439061 
  208000    1.0379514   -2.4371674   -2.4371674  -0.88024394   0.20981794   -2.4371674    1.5569235   439061 
  209000    1.0379737   -2.4383186   -2.4383186  -0.88136163   0.21034756   -2.4383186    1.5569569   439061 
  210000    1.0393561   -2.4399319   -2.4399319  -0.88090135   0.20604326   -2.4399319    1.5590306   439061 
  211000    1.0383018    -2.439228    -2.439228  -0.88177883   0.20672654    -2.439228    1.5574492   439061 
  212000    1.0401013   -2.4430755   -2.4430755  -0.88292719   0.20535503   -2.4430755    1.5601483   439061 
  213000    1.0387373   -2.4419519   -2.4419519  -0.88384947   0.20969086   -2.4419519    1.5581025   439061 
  214000    1.0385742   -2.4431877   -2.4431877  -0.88533001   0.20372743   -2.4431877    1.5578577   439061 
  215000    1.0393199   -2.4449311   -2.4449311   -0.8859548   0.20426166   -2.4449311    1.5589763   439061 
  216000    1.0358948   -2.4403356   -2.4403356  -0.88649697   0.20422298   -2.4403356    1.5538387   439061 
  217000    1.0356458    -2.441872    -2.441872  -0.88840684   0.21251541    -2.441872    1.5534651   439061 
  218000    1.0354972   -2.4427687   -2.4427687  -0.88952644   0.20352189   -2.4427687    1.5532423   439061 
  219000    1.0343987   -2.4433721   -2.4433721  -0.89177762   0.20415372   -2.4433721    1.5515945   439061 
  220000    1.0355262   -2.4443915   -2.4443915  -0.89110583   0.20386094   -2.4443915    1.5532857   439061 
  221000    1.0358615   -2.4448762   -2.4448762  -0.89108739   0.20266358   -2.4448762    1.5537888   439061 
  222000    1.0350498   -2.4457825   -2.4457825  -0.89321137   0.20489523   -2.4457825    1.5525711   439061 
  223000    1.0342091   -2.4452947   -2.4452947  -0.89398452   0.20290497   -2.4452947    1.5513102   439061 
  224000    1.0343835   -2.4456131   -2.4456131  -0.89404137   0.20592211   -2.4456131    1.5515717   439061 
  225000    1.0332706   -2.4440528   -2.4440528  -0.89415037   0.20251404   -2.4440528    1.5499024   439061 
  226000    1.0320178   -2.4435527   -2.4435527  -0.89552959   0.20447457   -2.4435527    1.5480231   439061 
  227000    1.0316048   -2.4443002   -2.4443002  -0.89689652   0.19792288   -2.4443002    1.5474037   439061 
  228000    1.0320171   -2.4445888   -2.4445888  -0.89656678   0.19978198   -2.4445888    1.5480221   439061 
  229000    1.0327997   -2.4454011   -2.4454011  -0.89620514   0.19970249   -2.4454011     1.549196   439061 
  230000    1.0328782   -2.4449961   -2.4449961  -0.89568231   0.20057312   -2.4449961    1.5493138   439061 
  231000    1.0322022   -2.4443423   -2.4443423  -0.89604245   0.19356009   -2.4443423    1.5482998   439061 
  232000    1.0315745   -2.4437903   -2.4437903  -0.89643211   0.20299412   -2.4437903    1.5473582   439061 
  233000    1.0313747   -2.4443424   -2.4443424  -0.89728398   0.19371193   -2.4443424    1.5470585   439061 
  234000    1.0321968   -2.4448889   -2.4448889  -0.89659718   0.19685308   -2.4448889    1.5482917   439061 
  235000    1.0324941    -2.445186    -2.445186   -0.8964484   0.19751829    -2.445186    1.5487376   439061 
  236000    1.0300124   -2.4423625   -2.4423625   -0.8973474   0.20054661   -2.4423625    1.5450151   439061 
  237000     1.029904    -2.443125    -2.443125  -0.89827249   0.20116421    -2.443125    1.5448525   439061 
  238000    1.0308974   -2.4445464   -2.4445464  -0.89820378   0.20015839   -2.4445464    1.5463426   439061 
  239000    1.0299697   -2.4439289   -2.4439289   -0.8989779   0.19766373   -2.4439289     1.544951   439061 
  240000    1.0310935   -2.4461541   -2.4461541  -0.89951738   0.19405416   -2.4461541    1.5466367   439061 
  241000    1.0294804   -2.4437645   -2.4437645  -0.89954747   0.20575497   -2.4437645     1.544217   439061 
  242000    1.0283642   -2.4442512   -2.4442512  -0.90170847   0.20080363   -2.4442512    1.5425427   439061 
  243000    1.0295742   -2.4467525   -2.4467525  -0.90239478   0.20125136   -2.4467525    1.5443577   439061 
  244000    1.0291317   -2.4488582   -2.4488582  -0.90516415   0.19606646   -2.4488582     1.543694   439061 
  245000    1.0293309   -2.4494774   -2.4494774  -0.90548459   0.20012588   -2.4494774    1.5439928   439061 
  246000    1.0270564   -2.4475182   -2.4475182  -0.90693715   0.19787113   -2.4475182    1.5405811   439061 
  247000    1.0275774   -2.4491686   -2.4491686    -0.907806   0.19596808   -2.4491686    1.5413626   439061 
  248000    1.0279395   -2.4506194   -2.4506194  -0.90871361   0.19500723   -2.4506194    1.5419058   439061 
  249000    1.0275427   -2.4505247   -2.4505247   -0.9092142    0.1982933   -2.4505247    1.5413105   439061 
  250000    1.0266592   -2.4497832   -2.4497832  -0.90979783   0.19869711   -2.4497832    1.5399854   439061 
  251000    1.0285247    -2.451779    -2.451779  -0.90899544   0.19446698    -2.451779    1.5427835   439061 
  252000    1.0259396   -2.4496671   -2.4496671  -0.91076127   0.19799569   -2.4496671    1.5389059   439061 
  253000    1.0271904   -2.4523853   -2.4523853  -0.91160326   0.19571507   -2.4523853     1.540782   439061 
  254000    1.0259172   -2.4505624   -2.4505624  -0.91169016   0.19297451   -2.4505624    1.5388723   439061 
  255000    1.0253851   -2.4507011   -2.4507011  -0.91262691   0.19799545   -2.4507011    1.5380742   439061 
  256000    1.0266413   -2.4528944   -2.4528944  -0.91293593   0.19251589   -2.4528944    1.5399585   439061 
  257000    1.0254186   -2.4521566   -2.4521566  -0.91403225   0.19680704   -2.4521566    1.5381244   439061 
  258000    1.0248316   -2.4527899   -2.4527899  -0.91554596   0.19131187   -2.4527899    1.5372439   439061 
  259000    1.0236369   -2.4510728   -2.4510728  -0.91562093   0.19989404   -2.4510728    1.5354518   439061 
  260000     1.024476   -2.4533016   -2.4533016  -0.91659107   0.19835775   -2.4533016    1.5367105   439061 
  261000    1.0240425   -2.4537313   -2.4537313  -0.91767109   0.19552426   -2.4537313    1.5360603   439061 
  262000    1.0251729   -2.4560951   -2.4560951  -0.91833933    0.1893168   -2.4560951    1.5377558   439061 
  263000    1.0231736    -2.453381    -2.453381  -0.91862405   0.19731549    -2.453381    1.5347569   439061 
  264000    1.0234553   -2.4542628   -2.4542628  -0.91908328   0.19146384   -2.4542628    1.5351795   439061 
  265000    1.0220462   -2.4525458   -2.4525458  -0.91947998   0.19025437   -2.4525458    1.5330658   439061 
  266000    1.0219454   -2.4539904   -2.4539904  -0.92107582    0.1932416   -2.4539904    1.5329146   439061 
  267000    1.0219261   -2.4534092   -2.4534092  -0.92052361   0.18813413   -2.4534092    1.5328856   439061 
  268000    1.0245646   -2.4573676   -2.4573676  -0.92052411   0.18992386   -2.4573676    1.5368435   439061 
  269000    1.0217703   -2.4532769   -2.4532769  -0.92062495   0.18832808   -2.4532769    1.5326519   439061 
  270000    1.0216105   -2.4540261   -2.4540261  -0.92161379   0.19043781   -2.4540261    1.5324123   439061 
  271000    1.0237528   -2.4563399   -2.4563399  -0.92071424   0.19438025   -2.4563399    1.5356257   439061 
  272000    1.0209375   -2.4534967   -2.4534967    -0.922094   0.19278218   -2.4534967    1.5314027   439061 
  273000    1.0210817   -2.4525002   -2.4525002  -0.92088109   0.19440471   -2.4525002    1.5316191   439061 
  274000    1.0211628   -2.4551705   -2.4551705  -0.92342978   0.18764208   -2.4551705    1.5317408   439061 
  275000    1.0215386   -2.4555311   -2.4555311  -0.92322671    0.1919149   -2.4555311    1.5323044   439061 
  276000    1.0211595   -2.4566565   -2.4566565  -0.92492075   0.19066508   -2.4566565    1.5317358   439061 
  277000    1.0222599   -2.4590204   -2.4590204  -0.92563406   0.18723049   -2.4590204    1.5333863   439061 
  278000    1.0196488   -2.4562763   -2.4562763  -0.92680654   0.18552956   -2.4562763    1.5294698   439061 
  279000    1.0183362   -2.4548467   -2.4548467  -0.92734594   0.19186863   -2.4548467    1.5275008   439061 
  280000    1.0192297   -2.4568812   -2.4568812  -0.92804008   0.18881328   -2.4568812    1.5288411   439061 
  281000    1.0181432   -2.4578965   -2.4578965  -0.93068525   0.19025327   -2.4578965    1.5272112   439061 
  282000    1.0188391   -2.4602341   -2.4602341   -0.9319789   0.18989028   -2.4602341    1.5282552   439061 
  283000    1.0195725   -2.4594043   -2.4594043  -0.93004897   0.18900215   -2.4594043    1.5293553   439061 
  284000    1.0184102   -2.4591198   -2.4591198  -0.93150791   0.18592016   -2.4591198    1.5276118   439061 
  285000    1.0187594   -2.4602931   -2.4602931  -0.93215754   0.18242207   -2.4602931    1.5281356   439061 
  286000    1.0180868   -2.4588554   -2.4588554  -0.93172869   0.19368484   -2.4588554    1.5271268   439061 
  287000    1.0187373    -2.460984    -2.460984  -0.93288147   0.18867473    -2.460984    1.5281025   439061 
  288000    1.0196707   -2.4621304   -2.4621304  -0.93262788    0.1905761   -2.4621304    1.5295025   439061 
  289000    1.0186335   -2.4613966   -2.4613966  -0.93344975   0.18368528   -2.4613966    1.5279468   439061 
  290000    1.0197985   -2.4628548   -2.4628548  -0.93316048   0.18789212   -2.4628548    1.5296943   439061 
  291000    1.0175165   -2.4600707   -2.4600707  -0.93379945   0.19024092   -2.4600707    1.5262713   439061 
  292000    1.0172414   -2.4598457   -2.4598457  -0.93398711   0.18804969   -2.4598457    1.5258586   439061 
  293000    1.0170633   -2.4599348   -2.4599348   -0.9343433   0.18609345   -2.4599348    1.5255915   439061 
  294000     1.017482    -2.460322    -2.460322  -0.93410255    0.1847258    -2.460322    1.5262195   439061 
  295000     1.017259   -2.4604259   -2.4604259  -0.93454092   0.18682638   -2.4604259     1.525885   439061 
  296000    1.0159274   -2.4588094   -2.4588094  -0.93492174    0.1890311   -2.4588094    1.5238877   439061 
  297000    1.0172721   -2.4607254   -2.4607254  -0.93482073    0.1863706   -2.4607254    1.5259047   439061 
  298000    1.0147682   -2.4573172   -2.4573172  -0.93516833   0.18476855   -2.4573172    1.5221489   439061 
  299000     1.015117    -2.457539    -2.457539  -0.93486704   0.18715117    -2.457539     1.522672   439061 
  300000    1.0155337   -2.4574588   -2.4574588  -0.93416168   0.18376008   -2.4574588    1.5232971   439061 
  301000    1.0145526   -2.4557223   -2.4557223  -0.93389676   0.18477698   -2.4557223    1.5218255   439061 
  302000    1.0164784   -2.4598753   -2.4598753  -0.93516121   0.18248204   -2.4598753    1.5247141   439061 
  303000    1.0168031   -2.4603788   -2.4603788  -0.93517766   0.18050042   -2.4603788    1.5252012   439061 
  304000    1.0149325   -2.4597052   -2.4597052  -0.93730992   0.18346662   -2.4597052    1.5223953   439061 
  305000    1.0152662   -2.4603759   -2.4603759  -0.93748007   0.17919821   -2.4603759    1.5228958   439061 
  306000     1.013646   -2.4604042   -2.4604042  -0.93993857   0.18228538   -2.4604042    1.5204656   439061 
  307000    1.0133561   -2.4589272   -2.4589272  -0.93889662   0.18396349   -2.4589272    1.5200306   439061 
  308000    1.0134857   -2.4590361   -2.4590361  -0.93881105   0.18116422   -2.4590361    1.5202251   439061 
  309000    1.0124845   -2.4593693   -2.4593693  -0.94064593   0.17635305   -2.4593693    1.5187233   439061 
  310000     1.012021   -2.4581581   -2.4581581  -0.94013004   0.17942406   -2.4581581     1.518028   439061 
  311000    1.0120207   -2.4592784   -2.4592784  -0.94125078   0.18416368   -2.4592784    1.5180276   439061 
  312000    1.0133195   -2.4616292   -2.4616292   -0.9416534   0.17996255   -2.4616292    1.5199758   439061 
  313000    1.0137922   -2.4636434   -2.4636434  -0.94295851   0.18414386   -2.4636434    1.5206849   439061 
  314000     1.012128   -2.4626325   -2.4626325  -0.94444405   0.18172398   -2.4626325    1.5181885   439061 
  315000    1.0132146    -2.464684    -2.464684  -0.94486557   0.17982213    -2.464684    1.5198184   439061 
  316000    1.0128817   -2.4654931   -2.4654931   -0.9461741   0.17756279   -2.4654931     1.519319   439061 
  317000    1.0117077   -2.4638257   -2.4638257  -0.94626761   0.18228152   -2.4638257    1.5175581   439061 
  318000    1.0110978   -2.4629396   -2.4629396  -0.94629639   0.18354524   -2.4629396    1.5166432   439061 
  319000    1.0118835   -2.4645965   -2.4645965  -0.94677476   0.17919682   -2.4645965    1.5178218   439061 
  320000     1.010624   -2.4645656   -2.4645656    -0.948633   0.18584961   -2.4645656    1.5159326   439061 
  321000     1.011671   -2.4663509   -2.4663509  -0.94884795    0.1788836   -2.4663509     1.517503   439061 
  322000    1.0102683   -2.4649147   -2.4649147  -0.94951571   0.18197009   -2.4649147     1.515399   439061 
  323000    1.0119772   -2.4675513   -2.4675513  -0.94958897   0.18028972   -2.4675513    1.5179624   439061 
  324000    1.0102662   -2.4668475   -2.4668475  -0.95145171   0.18373824   -2.4668475    1.5153958   439061 
  325000    1.0109484   -2.4691816   -2.4691816  -0.95276251   0.18036154   -2.4691816    1.5164191   439061 
  326000    1.0099785   -2.4669523   -2.4669523  -0.95198793   0.18498823   -2.4669523    1.5149643   439061 
  327000    1.0095829   -2.4672147   -2.4672147  -0.95284386   0.18187414   -2.4672147    1.5143708   439061 
  328000    1.0099763   -2.4681064   -2.4681064  -0.95314536    0.1797655   -2.4681064     1.514961   439061 
  329000     1.010432   -2.4696918   -2.4696918  -0.95404717    0.1854677   -2.4696918    1.5156446   439061 
  330000    1.0092761   -2.4684575   -2.4684575  -0.95454671   0.17715392   -2.4684575    1.5139108   439061 
  331000    1.0085557   -2.4687203   -2.4687203   -0.9558901   0.18248412   -2.4687203    1.5128302   439061 
  332000    1.0085843    -2.469661    -2.469661  -0.95678796   0.18203685    -2.469661     1.512873   439061 
  333000    1.0081013   -2.4689175   -2.4689175  -0.95676896    0.1794078   -2.4689175    1.5121486   439061 
  334000    1.0076631    -2.468141    -2.468141  -0.95664972   0.17925496    -2.468141    1.5114912   439061 
  335000    1.0080433   -2.4691038   -2.4691038  -0.95704226   0.17685887   -2.4691038    1.5120616   439061 
  336000    1.0070287   -2.4678079   -2.4678079   -0.9572683   0.17774904   -2.4678079    1.5105396   439061 
  337000     1.007287   -2.4685142   -2.4685142  -0.95758726   0.17546103   -2.4685142     1.510927   439061 
  338000    1.0087136    -2.470532    -2.470532  -0.95746496   0.17359756    -2.470532     1.513067   439061 
  339000    1.0080231   -2.4689829   -2.4689829  -0.95695162   0.17848101   -2.4689829    1.5120312   439061 
  340000    1.0058653   -2.4670782   -2.4670782  -0.95828375   0.17628449   -2.4670782    1.5087944   439061 
  341000    1.0077222   -2.4688327   -2.4688327  -0.95725276   0.17394846   -2.4688327    1.5115799   439061 
  342000    1.0064644   -2.4675537   -2.4675537  -0.95786048   0.17334987   -2.4675537    1.5096932   439061 
  343000    1.0067599    -2.468231    -2.468231  -0.95809459   0.17747329    -2.468231    1.5101364   439061 
  344000    1.0067564   -2.4673982   -2.4673982  -0.95726702   0.17712658   -2.4673982    1.5101312   439061 
  345000    1.0063419    -2.467861    -2.467861  -0.95835157   0.17916326    -2.467861    1.5095095   439061 
  346000    1.0054407   -2.4683254   -2.4683254  -0.96016782   0.17280469   -2.4683254    1.5081576   439061 
  347000    1.0062665   -2.4691611   -2.4691611  -0.95976478   0.17483817   -2.4691611    1.5093963   439061 
  348000    1.0068929    -2.470411    -2.470411  -0.96007513   0.17066391    -2.470411    1.5103359   439061 
  349000    1.0051137   -2.4691856   -2.4691856  -0.96151846   0.17130734   -2.4691856    1.5076672   439061 
  350000    1.0045399   -2.4691311   -2.4691311  -0.96232464   0.17515607   -2.4691311    1.5068065   439061 
  351000    1.0035145   -2.4677538   -2.4677538  -0.96248554   0.18313499   -2.4677538    1.5052683   439061 
  352000    1.0044983   -2.4693806   -2.4693806  -0.96263658   0.17330896   -2.4693806     1.506744   439061 
  353000    1.0053672   -2.4704511   -2.4704511  -0.96240383    0.1750476   -2.4704511    1.5080473   439061 
  354000    1.0059964   -2.4727249   -2.4727249  -0.96373368   0.17628584   -2.4727249    1.5089912   439061 
  355000    1.0057412   -2.4724584   -2.4724584  -0.96385001    0.1754623   -2.4724584    1.5086084   439061 
  356000    1.0038091    -2.470078    -2.470078  -0.96436779   0.17742177    -2.470078    1.5057102   439061 
  357000    1.0065498   -2.4736878   -2.4736878  -0.96386659   0.17649376   -2.4736878    1.5098212   439061 
  358000    1.0054727   -2.4728721   -2.4728721  -0.96466649   0.16942517   -2.4728721    1.5082056   439061 
  359000    1.0062699   -2.4747777   -2.4747777  -0.96537625   0.17831051   -2.4747777    1.5094014   439061 
  360000    1.0045987   -2.4727702   -2.4727702  -0.96587565   0.17514756   -2.4727702    1.5068946   439061 
  361000    1.0041657   -2.4722864   -2.4722864   -0.9660413   0.17648999   -2.4722864    1.5062451   439061 
  362000    1.0061424   -2.4754011   -2.4754011  -0.96619092   0.17096733   -2.4754011    1.5092102   439061 
  363000    1.0046739   -2.4739345   -2.4739345  -0.96692705   0.17341736   -2.4739345    1.5070074   439061 
  364000    1.0038817   -2.4735655   -2.4735655  -0.96774643   0.16981222   -2.4735655    1.5058191   439061 
  365000    1.0045267   -2.4748705   -2.4748705  -0.96808391   0.17436049   -2.4748705    1.5067866   439061 
  366000    1.0028987   -2.4745973   -2.4745973  -0.97025262   0.16836442   -2.4745973    1.5043447   439061 
  367000    1.0035723   -2.4748829   -2.4748829  -0.96952792   0.17117031   -2.4748829     1.505355   439061 
  368000    1.0033747   -2.4745103   -2.4745103  -0.96945168   0.17294077   -2.4745103    1.5050586   439061 
  369000    1.0029203   -2.4728699   -2.4728699   -0.9684928   0.16881726   -2.4728699    1.5043771   439061 
  370000    1.0010444   -2.4706609   -2.4706609   -0.9690977   0.16905976   -2.4706609    1.5015632   439061 
  371000    1.0013059    -2.471301    -2.471301  -0.96934559   0.17427595    -2.471301    1.5019555   439061 
  372000    1.0011919   -2.4733233   -2.4733233   -0.9715388   0.17423806   -2.4733233    1.5017845   439061 
  373000    1.0011952   -2.4740665   -2.4740665   -0.9722772   0.17246302   -2.4740665    1.5017893   439061 
  374000    1.0025426   -2.4749464   -2.4749464  -0.97113587   0.17150933   -2.4749464    1.5038105   439061 
  375000    1.0008627   -2.4734403   -2.4734403  -0.97214957   0.16993375   -2.4734403    1.5012907   439061 
  376000    1.0011923   -2.4744133   -2.4744133  -0.97262827   0.17297513   -2.4744133    1.5017851   439061 
  377000    1.0015359   -2.4736425   -2.4736425   -0.9713421   0.17461323   -2.4736425    1.5023004   439061 
  378000    1.0017565   -2.4744705   -2.4744705  -0.97183913   0.17157103   -2.4744705    1.5026314   439061 
  379000    1.0018713   -2.4764704   -2.4764704  -0.97366692   0.17302663   -2.4764704    1.5028035   439061 
  380000    1.0006281   -2.4751134   -2.4751134  -0.97417466   0.17239002   -2.4751134    1.5009388   439061 
  381000   0.99937648   -2.4735699   -2.4735699  -0.97450858    0.1698619   -2.4735699    1.4990613   439061 
  382000    1.0006829   -2.4759307   -2.4759307  -0.97490986   0.17277949   -2.4759307    1.5010209   439061 
  383000    1.0001812   -2.4750895   -2.4750895  -0.97482116   0.16762778   -2.4750895    1.5002684   439061 
  384000    1.0003347   -2.4771421   -2.4771421  -0.97664357   0.17193012   -2.4771421    1.5004986   439061 
  385000   0.99939547   -2.4757297   -2.4757297  -0.97663994   0.16698281   -2.4757297    1.4990898   439061 
  386000   0.99995535   -2.4772124   -2.4772124  -0.97728283    0.1681613   -2.4772124    1.4999296   439061 
  387000   0.99993655   -2.4766134   -2.4766134  -0.97671198   0.17237584   -2.4766134    1.4999014   439061 
  388000    1.0005643   -2.4789422   -2.4789422  -0.97809923   0.16704919   -2.4789422     1.500843   439061 
  389000    1.0005068   -2.4792004   -2.4792004  -0.97844363   0.16967306   -2.4792004    1.5007568   439061 
  390000   0.99968244   -2.4775533   -2.4775533  -0.97803306   0.16839587   -2.4775533    1.4995202   439061 
  391000   0.99946873   -2.4782246   -2.4782246   -0.9790249   0.16847897   -2.4782246    1.4991997   439061 
  392000   0.99940359   -2.4795485   -2.4795485  -0.98044652   0.16927201   -2.4795485     1.499102   439061 
  393000   0.99877623   -2.4785613   -2.4785613  -0.98040038   0.16879311   -2.4785613    1.4981609   439061 
  394000      0.99911   -2.4796477   -2.4796477  -0.98098613   0.17163303   -2.4796477    1.4986616   439061 
  395000   0.99947213   -2.4807863   -2.4807863  -0.98158155   0.16513491   -2.4807863    1.4992048   439061 
  396000   0.99848319    -2.482208    -2.482208  -0.98448665   0.16547912    -2.482208    1.4977214   439061 
  397000   0.99750856   -2.4812152   -2.4812152  -0.98495575   0.16682609   -2.4812152    1.4962594   439061 
  398000   0.99963258   -2.4853081   -2.4853081  -0.98586264   0.16610156   -2.4853081    1.4994455   439061 
  399000   0.99736534   -2.4817886   -2.4817886  -0.98574402   0.16635482   -2.4817886    1.4960446   439061 
  400000   0.99577923   -2.4794214   -2.4794214  -0.98575596   0.16918604   -2.4794214    1.4936654   439061 
  401000   0.99684104   -2.4816678   -2.4816678   -0.9864096   0.16647758   -2.4816678    1.4952582   439061 
  402000   0.99658785   -2.4811112   -2.4811112  -0.98623287   0.16857599   -2.4811112    1.4948784   439061 
  403000   0.99674825   -2.4814258   -2.4814258  -0.98630682   0.16782422   -2.4814258     1.495119   439061 
  404000   0.99664659   -2.4814899   -2.4814899  -0.98652342    0.1602663   -2.4814899    1.4949665   439061 
  405000   0.99605961   -2.4791656   -2.4791656  -0.98507955   0.16625418   -2.4791656     1.494086   439061 
  406000   0.99555436   -2.4785362   -2.4785362  -0.98520809   0.16579969   -2.4785362    1.4933281   439061 
  407000   0.99602598   -2.4801699   -2.4801699  -0.98613439   0.16240929   -2.4801699    1.4940356   439061 
  408000   0.99617534   -2.4804353   -2.4804353  -0.98617571   0.16004034   -2.4804353    1.4942596   439061 
  409000   0.99624037   -2.4793305   -2.4793305  -0.98497332   0.16580885   -2.4793305    1.4943572   439061 
  410000   0.99697854    -2.480397    -2.480397  -0.98493261   0.16353095    -2.480397    1.4954644   439061 
  411000   0.99524333   -2.4771201   -2.4771201  -0.98425851    0.1632569   -2.4771201    1.4928616   439061 
  412000   0.99628987    -2.478684    -2.478684  -0.98425259   0.16825895    -2.478684    1.4944314   439061 
  413000   0.99556613   -2.4790368   -2.4790368  -0.98569105   0.16115586   -2.4790368    1.4933458   439061 
  414000   0.99642272    -2.480628    -2.480628  -0.98599733   0.16604169    -2.480628    1.4946307   439061 
  415000   0.99543052   -2.4780879   -2.4780879  -0.98494552   0.16385383   -2.4780879    1.4931424   439061 
  416000   0.99500867    -2.479096    -2.479096  -0.98658635   0.16571892    -2.479096    1.4925096   439061 
  417000   0.99619473   -2.4815961   -2.4815961  -0.98730742   0.16138943   -2.4815961    1.4942887   439061 
  418000   0.99577698   -2.4808338   -2.4808338  -0.98717172   0.16789025   -2.4808338    1.4936621   439061 
  419000   0.99516273   -2.4806775   -2.4806775   -0.9879368   0.17242446   -2.4806775    1.4927407   439061 
  420000   0.99518706   -2.4816584   -2.4816584  -0.98888122   0.16458641   -2.4816584    1.4927772   439061 
  421000   0.99379761   -2.4813107   -2.4813107  -0.99061772   0.16233777   -2.4813107     1.490693   439061 
  422000   0.99457939   -2.4840993   -2.4840993  -0.99223364   0.15942863   -2.4840993    1.4918657   439061 
  423000    0.9935633   -2.4821171   -2.4821171  -0.99177557   0.16390297   -2.4821171    1.4903416   439061 
  424000   0.99624145   -2.4851825   -2.4851825  -0.99082371   0.16088833   -2.4851825    1.4943588   439061 
  425000   0.99454272   -2.4831958   -2.4831958  -0.99138508   0.16049753   -2.4831958    1.4918107   439061 
  426000   0.99543682   -2.4835693   -2.4835693  -0.99041747   0.16297058   -2.4835693    1.4931518   439061 
  427000   0.99410546   -2.4824055   -2.4824055   -0.9912507   0.16263085   -2.4824055    1.4911548   439061 
  428000   0.99504552   -2.4833709   -2.4833709  -0.99080602    0.1647597   -2.4833709    1.4925649   439061 
  429000    0.9931633   -2.4816402   -2.4816402  -0.99189861   0.16626989   -2.4816402    1.4897416   439061 
  430000   0.99512876   -2.4861056   -2.4861056  -0.99341586   0.15910401   -2.4861056    1.4926897   439061 
  431000   0.99277231   -2.4830321   -2.4830321  -0.99387703   0.16769054   -2.4830321    1.4891551   439061 
  432000   0.99220427   -2.4824056   -2.4824056  -0.99410256   0.16259941   -2.4824056     1.488303   439061 
  433000   0.99285632   -2.4831152   -2.4831152  -0.99383408   0.16399543   -2.4831152    1.4892811   439061 
  434000   0.99192401   -2.4822649   -2.4822649  -0.99438232   0.16111163   -2.4822649    1.4878826   439061 
  435000   0.99360411    -2.485147    -2.485147  -0.99474421   0.15833667    -2.485147    1.4904028   439061 
  436000   0.99176631   -2.4822925   -2.4822925  -0.99464637   0.16317928   -2.4822925    1.4876461   439061 
  437000   0.99321552   -2.4833949   -2.4833949  -0.99357503   0.16096045   -2.4833949    1.4898199   439061 
  438000   0.99338439   -2.4832297   -2.4832297  -0.99315653   0.16347653   -2.4832297    1.4900732   439061 
  439000   0.99204475    -2.482288    -2.482288  -0.99422428   0.16138709    -2.482288    1.4880637   439061 
  440000   0.99239047    -2.482562    -2.482562  -0.99397968   0.16523719    -2.482562    1.4885823   439061 
  441000    0.9927962   -2.4838654   -2.4838654  -0.99467449   0.15902922   -2.4838654    1.4891909   439061 
  442000    0.9924238   -2.4829404   -2.4829404  -0.99430804   0.16279131   -2.4829404    1.4886323   439061 
  443000    0.9926494   -2.4839456   -2.4839456  -0.99497491   0.16140146   -2.4839456    1.4889707   439061 
  444000   0.99165971    -2.482898    -2.482898  -0.99541183   0.15808692    -2.482898    1.4874862   439061 
  445000   0.99165146   -2.4827871   -2.4827871  -0.99531326   0.16195021   -2.4827871    1.4874738   439061 
  446000   0.99098329   -2.4823222   -2.4823222  -0.99585068   0.15909779   -2.4823222    1.4864715   439061 
  447000   0.99308266   -2.4857596   -2.4857596  -0.99613905   0.16042234   -2.4857596    1.4896206   439061 
  448000   0.99065915   -2.4827057   -2.4827057  -0.99672037   0.16053686   -2.4827057    1.4859853   439061 
  449000   0.99125112   -2.4839324   -2.4839324  -0.99705911   0.16184189   -2.4839324    1.4868733   439061 
  450000   0.99139606   -2.4837616   -2.4837616  -0.99667091   0.16341328   -2.4837616    1.4870907   439061 
  451000   0.99100795   -2.4844014   -2.4844014  -0.99789284    0.1578013   -2.4844014    1.4865085   439061 
  452000   0.99132081   -2.4857626   -2.4857626  -0.99878478   0.15660123   -2.4857626    1.4869778   439061 
  453000   0.99078855   -2.4841599   -2.4841599  -0.99798046   0.16157971   -2.4841599    1.4861794   439061 
  454000   0.98972847   -2.4858173   -2.4858173   -1.0012279   0.15570189   -2.4858173    1.4845893   439061 
  455000   0.99085803   -2.4888534   -2.4888534   -1.0025698    0.1574121   -2.4888534    1.4862837   439061 
  456000   0.98927741   -2.4848589   -2.4848589   -1.0009462   0.15936511   -2.4848589    1.4839127   439061 
  457000   0.98847577   -2.4849047   -2.4849047   -1.0021944    0.1580196   -2.4849047    1.4827103   439061 
  458000   0.98903212   -2.4867187   -2.4867187   -1.0031739    0.1579728   -2.4867187    1.4835448   439061 
  459000   0.98931384   -2.4880588   -2.4880588   -1.0040914   0.16003701   -2.4880588    1.4839674   439061 
  460000   0.98890026   -2.4876224   -2.4876224   -1.0042754   0.15970432   -2.4876224     1.483347   439061 
  461000   0.98822785   -2.4866624   -2.4866624    -1.004324     0.159713   -2.4866624    1.4823384   439061 
  462000   0.98958997    -2.488351    -2.488351   -1.0039695   0.15844857    -2.488351    1.4843816   439061 
  463000   0.98994695   -2.4878969   -2.4878969   -1.0029799   0.15971537   -2.4878969     1.484917   439061 
  464000   0.98930761   -2.4882527   -2.4882527   -1.0042946   0.15732083   -2.4882527     1.483958   439061 
  465000    0.9877955   -2.4876253   -2.4876253   -1.0059354   0.15322205   -2.4876253    1.4816899   439061 
  466000   0.98789792   -2.4887505   -2.4887505    -1.006907   0.15965933   -2.4887505    1.4818435   439061 
  467000    0.9874233   -2.4873517   -2.4873517   -1.0062201   0.15635292   -2.4873517    1.4811316   439061 
  468000   0.98704207   -2.4874895   -2.4874895   -1.0069298   0.15844842   -2.4874895    1.4805597   439061 
  469000    0.9869389   -2.4875441   -2.4875441   -1.0071392   0.15920465   -2.4875441     1.480405   439061 
  470000    0.9874335   -2.4887773   -2.4887773   -1.0076304   0.16243123   -2.4887773    1.4811469   439061 
  471000   0.98735452    -2.487173    -2.487173   -1.0061446   0.16113082    -2.487173    1.4810284   439061 
  472000    0.9873853   -2.4872233   -2.4872233   -1.0061488   0.15867084   -2.4872233    1.4810746   439061 
  473000   0.98858957    -2.488673    -2.488673    -1.005792   0.15862909    -2.488673     1.482881   439061 
  474000   0.98767912   -2.4889109   -2.4889109   -1.0073955   0.16349549   -2.4889109    1.4815153   439061 
  475000   0.98791967   -2.4893661   -2.4893661   -1.0074899   0.15658157   -2.4893661    1.4818761   439061 
  476000   0.98832365   -2.4912971   -2.4912971    -1.008815    0.1568948   -2.4912971    1.4824821   439061 
  477000   0.98813057   -2.4911137   -2.4911137   -1.0089212   0.15935371   -2.4911137    1.4821925   439061 
  478000   0.98599615   -2.4881438   -2.4881438    -1.009153    0.1550157   -2.4881438    1.4789909   439061 
  479000   0.98644241   -2.4887633   -2.4887633    -1.009103   0.15607131   -2.4887633    1.4796602   439061 
  480000   0.98567154   -2.4884561   -2.4884561   -1.0099521   0.15600284   -2.4884561    1.4785039   439061 
  481000   0.98697383   -2.4886937   -2.4886937   -1.0082363    0.1608188   -2.4886937    1.4804574   439061 
  482000   0.98718361   -2.4880288   -2.4880288   -1.0072568   0.15551615   -2.4880288     1.480772   439061 
  483000   0.98674039    -2.488072    -2.488072   -1.0079647   0.15752586    -2.488072    1.4801072   439061 
  484000   0.98811635   -2.4900307   -2.4900307   -1.0078596   0.15182691   -2.4900307    1.4821712   439061 
  485000   0.98765979   -2.4899798   -2.4899798   -1.0084935   0.15071823   -2.4899798    1.4814863   439061 
  486000   0.98542059    -2.487676    -2.487676   -1.0095485   0.15695497    -2.487676    1.4781275   439061 
  487000   0.98643926   -2.4899229   -2.4899229   -1.0102674   0.15644633   -2.4899229    1.4796555   439061 
  488000   0.98697973   -2.4897466   -2.4897466   -1.0092804   0.14978339   -2.4897466    1.4804662   439061 
  489000   0.98599752   -2.4900853   -2.4900853   -1.0110924   0.15521471   -2.4900853    1.4789929   439061 
  490000   0.98481057   -2.4893931   -2.4893931   -1.0121806   0.15527501   -2.4893931    1.4772125   439061 
  491000    0.9864981   -2.4899767   -2.4899767   -1.0102329   0.15244462   -2.4899767    1.4797438   439061 
  492000   0.98645481   -2.4887823   -2.4887823   -1.0091035   0.15710651   -2.4887823    1.4796788   439061 
  493000   0.98637888   -2.4882495   -2.4882495   -1.0086845   0.15795622   -2.4882495     1.479565   439061 
  494000   0.98694508   -2.4900701   -2.4900701   -1.0096558   0.14942767   -2.4900701    1.4804143   439061 
  495000     0.987221   -2.4895736   -2.4895736   -1.0087455   0.15417969   -2.4895736    1.4808281   439061 
  496000   0.98582837   -2.4875749   -2.4875749   -1.0088357   0.15969928   -2.4875749    1.4787392   439061 
  497000   0.98656611   -2.4895189   -2.4895189   -1.0096731   0.15489117   -2.4895189    1.4798458   439061 
  498000    0.9854947    -2.489432    -2.489432   -1.0111933   0.15082715    -2.489432    1.4782387   439061 
  499000   0.98499706   -2.4899075   -2.4899075   -1.0124153   0.15157699   -2.4899075    1.4774922   439061 
  500000   0.98471266   -2.4888175   -2.4888175   -1.0117519   0.15670776   -2.4888175    1.4770656   439061 
  501000   0.98549446    -2.490214    -2.490214   -1.0119757   0.15382688    -2.490214    1.4782383   439061 
  502000   0.98469892   -2.4889216   -2.4889216   -1.0118766   0.15009254   -2.4889216     1.477045   439061 
  503000   0.98348102    -2.488535    -2.488535   -1.0133168   0.15490584    -2.488535    1.4752182   439061 
  504000   0.98393753   -2.4890007   -2.4890007   -1.0130977   0.15237804   -2.4890007    1.4759029   439061 
  505000   0.98651151   -2.4929966   -2.4929966   -1.0132327   0.14843541   -2.4929966    1.4797639   439061 
  506000   0.98517627   -2.4934676   -2.4934676   -1.0157066   0.15260936   -2.4934676     1.477761   439061 
  507000   0.98306791   -2.4899033   -2.4899033   -1.0153048   0.15594859   -2.4899033    1.4745985   439061 
  508000   0.98342638   -2.4914522   -2.4914522    -1.016316    0.1571081   -2.4914522    1.4751362   439061 
  509000   0.98335135   -2.4914614   -2.4914614   -1.0164377   0.15594562   -2.4914614    1.4750237   439061 
  510000   0.98366417   -2.4917146   -2.4917146   -1.0162218   0.15795345   -2.4917146    1.4754929   439061 
  511000   0.98385742   -2.4928889   -2.4928889   -1.0171061   0.15314019   -2.4928889    1.4757828   439061 
  512000    0.9843719   -2.4932668   -2.4932668   -1.0167123    0.1536503   -2.4932668    1.4765545   439061 
  513000   0.98411545   -2.4946914   -2.4946914   -1.0185216   0.15064802   -2.4946914    1.4761698   439061 
  514000    0.9818529   -2.4907647   -2.4907647   -1.0179887   0.15641982   -2.4907647     1.472776   439061 
  515000   0.98256124   -2.4931345   -2.4931345    -1.019296    0.1566268   -2.4931345    1.4738385   439061 
  516000   0.98254773   -2.4919887   -2.4919887   -1.0181705   0.15270438   -2.4919887    1.4738182   439061 
  517000   0.98252253    -2.493355    -2.493355   -1.0195745   0.15438087    -2.493355    1.4737804   439061 
  518000   0.98275365   -2.4946798   -2.4946798   -1.0205527   0.14700935   -2.4946798    1.4741271   439061 
  519000   0.98358159   -2.4952349   -2.4952349   -1.0198659   0.15179248   -2.4952349     1.475369   439061 
  520000   0.98342339   -2.4948065   -2.4948065   -1.0196747   0.15541616   -2.4948065    1.4751317   439061 
  521000   0.98190077   -2.4934643   -2.4934643   -1.0206165   0.14794326   -2.4934643    1.4728478   439061 
  522000   0.98341506   -2.4952025   -2.4952025   -1.0200833   0.15079519   -2.4952025    1.4751192   439061 
  523000    0.9815061   -2.4924441   -2.4924441   -1.0201883   0.15443765   -2.4924441    1.4722558   439061 
  524000   0.98172276   -2.4937223   -2.4937223   -1.0211415    0.1523023   -2.4937223    1.4725808   439061 
  525000    0.9815764   -2.4948942   -2.4948942   -1.0225329   0.15019995   -2.4948942    1.4723612   439061 
  526000    0.9813861   -2.4952169   -2.4952169   -1.0231411   0.15290335   -2.4952169    1.4720758   439061 
  527000   0.98091238    -2.495065    -2.495065   -1.0236998   0.14625936    -2.495065    1.4713652   439061 
  528000   0.98055011   -2.4939411   -2.4939411   -1.0231193   0.14952541   -2.4939411    1.4708218   439061 
  529000   0.98085589   -2.4958116   -2.4958116   -1.0245311    0.1539225   -2.4958116    1.4712805   439061 
  530000   0.97928003   -2.4947682   -2.4947682   -1.0258515   0.15086415   -2.4947682    1.4689167   439061 
  531000   0.98026441   -2.4981043   -2.4981043    -1.027711   0.15064564   -2.4981043    1.4703933   439061 
  532000   0.97964877   -2.4968777   -2.4968777   -1.0274079   0.15000774   -2.4968777    1.4694698   439061 
  533000   0.97970703   -2.4967468   -2.4967468   -1.0271896   0.15375783   -2.4967468    1.4695572   439061 
  534000   0.98035384   -2.4982025   -2.4982025   -1.0276751   0.14852834   -2.4982025    1.4705274   439061 
  535000   0.98051318   -2.4995729   -2.4995729   -1.0288065   0.15190091   -2.4995729    1.4707664   439061 
  536000   0.98059585   -2.4998947   -2.4998947   -1.0290042   0.14651481   -2.4998947    1.4708904   439061 
  537000   0.97980328   -2.4983334   -2.4983334   -1.0286318    0.1493469   -2.4983334    1.4697016   439061 
  538000   0.97966763   -2.4987475   -2.4987475   -1.0292495   0.15114488   -2.4987475    1.4694981   439061 
  539000   0.97889894   -2.4986948   -2.4986948   -1.0303498   0.14402238   -2.4986948    1.4683451   439061 
  540000   0.97905113   -2.4987086   -2.4987086   -1.0301352   0.14331555   -2.4987086    1.4685734   439061 
  541000   0.97863616   -2.4961336   -2.4961336   -1.0281827   0.15321464   -2.4961336    1.4679509   439061 
  542000   0.97878808   -2.4981453   -2.4981453   -1.0299665   0.15080528   -2.4981453    1.4681788   439061 
  543000   0.97940834   -2.4993403   -2.4993403   -1.0302311   0.14841499   -2.4993403    1.4691092   439061 
  544000   0.97917305   -2.4989056   -2.4989056   -1.0301494   0.14954613   -2.4989056    1.4687562   439061 
  545000   0.97979668   -2.4989064   -2.4989064   -1.0292148   0.15510366   -2.4989064    1.4696917   439061 
  546000   0.97842266   -2.4974959   -2.4974959   -1.0298653   0.14968854   -2.4974959    1.4676306   439061 
  547000   0.97926441   -2.4993809   -2.4993809   -1.0304877   0.14827859   -2.4993809    1.4688933   439061 
  548000   0.97874908   -2.4996151   -2.4996151   -1.0314949   0.14792728   -2.4996151    1.4681203   439061 
  549000   0.97912176   -2.4996871   -2.4996871   -1.0310078   0.14777789   -2.4996871    1.4686793   439061 
  550000   0.97806699   -2.4992652   -2.4992652   -1.0321681   0.14986796   -2.4992652    1.4670971   439061 
  551000   0.97866413   -2.5001793   -2.5001793   -1.0321864   0.15170308   -2.5001793    1.4679928   439061 
  552000   0.97848584   -2.5012833   -2.5012833   -1.0335579   0.14238196   -2.5012833    1.4677254   439061 
  553000   0.97769954   -2.5004201   -2.5004201   -1.0338742   0.14725969   -2.5004201     1.466546   439061 
  554000   0.97750066   -2.5007539   -2.5007539   -1.0345063   0.14925988   -2.5007539    1.4662477   439061 
  555000   0.97629492   -2.4988887   -2.4988887   -1.0344496   0.14681031   -2.4988887     1.464439   439061 
  556000   0.97684962   -2.4994592   -2.4994592   -1.0341881   0.14624702   -2.4994592    1.4652711   439061 
  557000   0.97862475   -2.5027762   -2.5027762   -1.0348424   0.14536182   -2.5027762    1.4679338   439061 
  558000   0.97655532   -2.4999102   -2.4999102   -1.0350805   0.14865975   -2.4999102    1.4648296   439061 
  559000    0.9797518   -2.5031826   -2.5031826   -1.0335582   0.14327165   -2.5031826    1.4696244   439061 
  560000   0.97763695   -2.5000309   -2.5000309   -1.0335788    0.1423422   -2.5000309    1.4664521   439061 
  561000   0.97778184   -2.4990809   -2.4990809   -1.0324115   0.14892924   -2.4990809    1.4666694   439061 
  562000   0.97725225   -2.4988693   -2.4988693   -1.0329943   0.14613045   -2.4988693     1.465875   439061 
  563000   0.97685577   -2.4990681   -2.4990681   -1.0337878   0.14776695   -2.4990681    1.4652803   439061 
  564000   0.97571737   -2.4979538   -2.4979538   -1.0343811   0.15012241   -2.4979538    1.4635727   439061 
  565000   0.97897889   -2.5019638   -2.5019638   -1.0334988   0.14614582   -2.5019638     1.468465   439061 
  566000   0.97754276   -2.5012856   -2.5012856   -1.0349748   0.14718101   -2.5012856    1.4663108   439061 
  567000   0.97557105   -2.4982428   -2.4982428   -1.0348895    0.1510286   -2.4982428    1.4633532   439061 
  568000   0.97788026   -2.5013132   -2.5013132   -1.0344962   0.15084113   -2.5013132    1.4668171   439061 
  569000   0.97652456   -2.4989854   -2.4989854   -1.0342019   0.14390517   -2.4989854    1.4647835   439061 
  570000   0.97745597   -2.5004669   -2.5004669   -1.0342863   0.14551706   -2.5004669    1.4661806   439061 
  571000   0.97677964    -2.499955    -2.499955   -1.0347888   0.14663137    -2.499955    1.4651661   439061 
  572000    0.9764703   -2.5010139   -2.5010139   -1.0363118    0.1450413   -2.5010139    1.4647021   439061 
  573000   0.97582583   -2.5007815   -2.5007815   -1.0370461   0.14752023   -2.5007815    1.4637354   439061 
  574000   0.97619069   -2.5015582   -2.5015582   -1.0372755   0.14859371   -2.5015582    1.4642827   439061 
  575000   0.97402865   -2.4984599   -2.4984599   -1.0374202   0.14501348   -2.4984599    1.4610397   439061 
  576000   0.97554589   -2.4999716   -2.4999716   -1.0366561    0.1512354   -2.4999716    1.4633155   439061 
  577000   0.97569022   -2.5022167   -2.5022167   -1.0386847   0.14540061   -2.5022167     1.463532   439061 
  578000   0.97436269   -2.5015673   -2.5015673   -1.0400266   0.14644588   -2.5015673    1.4615407   439061 
  579000   0.97423445   -2.5000071   -2.5000071   -1.0386587   0.14518167   -2.5000071    1.4613483   439061 
  580000    0.9744168   -2.5008157   -2.5008157   -1.0391938   0.14478577   -2.5008157    1.4616219   439061 
  581000   0.97406134   -2.5011989   -2.5011989   -1.0401102    0.1437536   -2.5011989    1.4610887   439061 
  582000   0.97545244   -2.5025104   -2.5025104   -1.0393351   0.14563867   -2.5025104    1.4631753   439061 
  583000   0.97492955   -2.5016893   -2.5016893   -1.0392983   0.14174739   -2.5016893     1.462391   439061 
  584000   0.97433344   -2.5004579   -2.5004579    -1.038961   0.14496977   -2.5004579    1.4614968   439061 
  585000   0.97474144   -2.5012777   -2.5012777   -1.0391689   0.14704946   -2.5012777    1.4621088   439061 
  586000   0.97513619   -2.5021751   -2.5021751   -1.0394741   0.14076743   -2.5021751     1.462701   439061 
  587000   0.97520675   -2.5028272   -2.5028272   -1.0400204    0.1440755   -2.5028272    1.4628068   439061 
  588000   0.97423314    -2.500495    -2.500495   -1.0391487   0.14336068    -2.500495    1.4613464   439061 
  589000   0.97404783   -2.5010415   -2.5010415   -1.0399731   0.14907129   -2.5010415    1.4610684   439061 
  590000   0.97288297   -2.5006588   -2.5006588   -1.0413377   0.14191038   -2.5006588    1.4593211   439061 
  591000   0.97405944   -2.5017278   -2.5017278   -1.0406419   0.14236631   -2.5017278    1.4610858   439061 
  592000    0.9726386   -2.5006272   -2.5006272   -1.0416726   0.14510127   -2.5006272    1.4589546   439061 
  593000   0.97316173   -2.5024323   -2.5024323   -1.0426931   0.14484519   -2.5024323    1.4597393   439061 
  594000   0.97240396   -2.5001417   -2.5001417    -1.041539    0.1476399   -2.5001417    1.4586026   439061 
  595000   0.97226065   -2.5009914   -2.5009914   -1.0426038   0.14094903   -2.5009914    1.4583877   439061 
  596000   0.97296319   -2.5013584   -2.5013584   -1.0419169   0.14192028   -2.5013584    1.4594415   439061 
  597000   0.97362991   -2.5027123   -2.5027123   -1.0422708   0.14315707   -2.5027123    1.4604415   439061 
  598000   0.97517096   -2.5040838   -2.5040838   -1.0413307   0.14277635   -2.5040838    1.4627531   439061 
  599000   0.97300778   -2.5027259   -2.5027259   -1.0432175   0.14690506   -2.5027259    1.4595084   439061 
  600000   0.97340358   -2.5034725   -2.5034725   -1.0433704   0.13967473   -2.5034725     1.460102   439061 
  601000   0.97338037   -2.5036344   -2.5036344   -1.0435671   0.14579103   -2.5036344    1.4600672   439061 
  602000   0.97213179   -2.5029948   -2.5029948   -1.0448005   0.14100818   -2.5029948    1.4581944   439061 
  603000   0.97294091   -2.5036208   -2.5036208   -1.0442127   0.13923839   -2.5036208     1.459408   439061 
  604000   0.97203249     -2.50295     -2.50295   -1.0449046   0.14156794     -2.50295    1.4580454   439061 
  605000   0.97233688   -2.5029674   -2.5029674   -1.0444654   0.14653769   -2.5029674     1.458502   439061 
  606000   0.97148641   -2.5018207   -2.5018207   -1.0445944   0.14320629   -2.5018207    1.4572263   439061 
  607000    0.9717746   -2.5021268   -2.5021268   -1.0444682   0.14614669   -2.5021268    1.4576586   439061 
  608000   0.97250516   -2.5024143   -2.5024143   -1.0436599   0.13916853   -2.5024143    1.4587544   439061 
  609000   0.97103821   -2.5011185   -2.5011185   -1.0445645   0.14242975   -2.5011185     1.456554   439061 
  610000   0.97196934    -2.502691    -2.502691   -1.0447403   0.14146203    -2.502691    1.4579507   439061 
  611000   0.97169438   -2.5031122   -2.5031122   -1.0455739   0.13929057   -2.5031122    1.4575383   439061 
  612000   0.97201781   -2.5030731   -2.5030731   -1.0450498    0.1375192   -2.5030731    1.4580234   439061 
  613000    0.9712657   -2.5028556   -2.5028556   -1.0459603   0.14196537   -2.5028556    1.4568952   439061 
  614000   0.97300245   -2.5051678   -2.5051678   -1.0456675   0.14247103   -2.5051678    1.4595004   439061 
  615000   0.97221041   -2.5043937   -2.5043937   -1.0460814   0.14501436   -2.5043937    1.4583123   439061 
  616000    0.9723604    -2.502894    -2.502894   -1.0443567    0.1453641    -2.502894    1.4585373   439061 
  617000   0.97211108   -2.5023294   -2.5023294   -1.0441661   0.13966485   -2.5023294    1.4581633   439061 
  618000   0.97306443   -2.5044989   -2.5044989   -1.0449056   0.13844757   -2.5044989    1.4595933   439061 
  619000   0.97353745   -2.5054318   -2.5054318    -1.045129   0.14238571   -2.5054318    1.4603029   439061 
  620000   0.97219872   -2.5040596   -2.5040596   -1.0457648   0.14135474   -2.5040596    1.4582948   439061 
  621000   0.97252966   -2.5061659   -2.5061659   -1.0473747   0.13960633   -2.5061659    1.4587912   439061 
  622000   0.97147093   -2.5038886   -2.5038886   -1.0466855   0.14253342   -2.5038886    1.4572031   439061 
  623000   0.97231674   -2.5063154   -2.5063154   -1.0478436   0.13868423   -2.5063154    1.4584718   439061 
  624000   0.96981282   -2.5036207   -2.5036207   -1.0489048    0.1375336   -2.5036207    1.4547159   439061 
  625000   0.97071268   -2.5033898   -2.5033898   -1.0473241   0.14106084   -2.5033898    1.4560657   439061 
  626000   0.97086813   -2.5050368   -2.5050368   -1.0487379   0.13815903   -2.5050368    1.4562989   439061 
  627000   0.96961783   -2.5027562   -2.5027562   -1.0483327   0.13749935   -2.5027562    1.4544234   439061 
  628000   0.96864381   -2.5017728   -2.5017728   -1.0488104   0.14486315   -2.5017728    1.4529624   439061 
  629000   0.97115112    -2.505069    -2.505069   -1.0483456   0.14120123    -2.505069    1.4567234   439061 
  630000   0.96971276   -2.5042057   -2.5042057   -1.0496398   0.13212026   -2.5042057    1.4545658   439061 
  631000   0.96936653   -2.5049572   -2.5049572   -1.0509107   0.13845449   -2.5049572    1.4540465   439061 
  632000   0.96961146   -2.5060818   -2.5060818   -1.0516679   0.13981093   -2.5060818    1.4544139   439061 
  633000   0.96903357    -2.505516    -2.505516   -1.0519689   0.14049887    -2.505516     1.453547   439061 
  634000   0.96818562   -2.5044736   -2.5044736   -1.0521985   0.14022474   -2.5044736    1.4522751   439061 
  635000   0.96955875   -2.5055375   -2.5055375   -1.0512027   0.13819786   -2.5055375    1.4543348   439061 
  636000   0.96987073   -2.5058726   -2.5058726   -1.0510698    0.1382259   -2.5058726    1.4548028   439061 
  637000   0.96940647   -2.5058676   -2.5058676   -1.0517612   0.13602567   -2.5058676    1.4541064   439061 
  638000   0.96926656   -2.5052242   -2.5052242   -1.0513277   0.14147923   -2.5052242    1.4538965   439061 
  639000   0.97037662   -2.5072128   -2.5072128   -1.0516512   0.13854113   -2.5072128    1.4555616   439061 
  640000   0.96905358   -2.5066963   -2.5066963   -1.0531192   0.13861105   -2.5066963    1.4535771   439061 
  641000   0.96917284   -2.5084017   -2.5084017   -1.0546458   0.13541131   -2.5084017     1.453756   439061 
  642000    0.9696064   -2.5091814   -2.5091814   -1.0547752   0.13916717   -2.5091814    1.4544063   439061 
  643000    0.9680448   -2.5082894   -2.5082894   -1.0562255   0.14006636   -2.5082894    1.4520639   439061 
  644000   0.96830477     -2.50848     -2.50848   -1.0560261   0.13788737     -2.50848    1.4524539   439061 
  645000    0.9677827   -2.5086111   -2.5086111   -1.0569404   0.14038115   -2.5086111    1.4516707   439061 
  646000   0.96745801   -2.5077044   -2.5077044   -1.0565207    0.1394273   -2.5077044    1.4511837   439061 
  647000   0.96918776   -2.5106435   -2.5106435   -1.0568652   0.13999992   -2.5106435    1.4537783   439061 
  648000   0.96884458   -2.5105749   -2.5105749   -1.0573114   0.13712284   -2.5105749    1.4532636   439061 
  649000   0.96695512   -2.5085891   -2.5085891   -1.0581597   0.13913869   -2.5085891    1.4504294   439061 
  650000   0.96716099   -2.5111721   -2.5111721   -1.0604339   0.13483137   -2.5111721    1.4507382   439061 
  651000   0.96672339   -2.5102183   -2.5102183   -1.0601365   0.13321267   -2.5102183    1.4500818   439061 
  652000   0.96813811   -2.5120478   -2.5120478   -1.0598439   0.13491307   -2.5120478    1.4522039   439061 
  653000   0.96723068   -2.5107677   -2.5107677    -1.059925   0.13385443   -2.5107677    1.4508427   439061 
  654000    0.9690554   -2.5120107   -2.5120107   -1.0584309   0.13742889   -2.5120107    1.4535798   439061 
  655000   0.96722198   -2.5108013   -2.5108013   -1.0599716   0.13825367   -2.5108013    1.4508297   439061 
  656000   0.96710071   -2.5092686   -2.5092686   -1.0586208   0.13903388   -2.5092686    1.4506478   439061 
  657000   0.96824715   -2.5104925   -2.5104925   -1.0581251   0.13885575   -2.5104925    1.4523674   439061 
  658000    0.9670186   -2.5089757   -2.5089757   -1.0584511   0.13895555   -2.5089757    1.4505246   439061 
  659000   0.96951081   -2.5107388   -2.5107388   -1.0564759   0.13912244   -2.5107388    1.4542629   439061 
  660000   0.97044199   -2.5104997   -2.5104997     -1.05484   0.13641749   -2.5104997    1.4556597   439061 
  661000   0.96819763    -2.508239    -2.508239   -1.0559458   0.14091369    -2.508239    1.4522931   439061 
  662000   0.96653436   -2.5069027   -2.5069027   -1.0571044    0.1362074   -2.5069027    1.4497982   439061 
  663000   0.96784484   -2.5096411   -2.5096411   -1.0578771   0.13753189   -2.5096411     1.451764   439061 
  664000    0.9676522   -2.5090873   -2.5090873   -1.0576123   0.13554391   -2.5090873     1.451475   439061 
  665000   0.96659488   -2.5072612   -2.5072612   -1.0573722   0.12970417   -2.5072612     1.449889   439061 
  666000   0.96596877   -2.5064326   -2.5064326   -1.0574827     0.137768   -2.5064326    1.4489498   439061 
  667000   0.96698829   -2.5066844   -2.5066844   -1.0562053   0.13384194   -2.5066844    1.4504791   439061 
  668000   0.96732168    -2.507771    -2.507771   -1.0567918   0.13630798    -2.507771    1.4509792   439061 
  669000   0.96692227   -2.5055288   -2.5055288   -1.0551487   0.13495765   -2.5055288    1.4503801   439061 
  670000   0.96763256   -2.5071948   -2.5071948   -1.0557492   0.13659325   -2.5071948    1.4514455   439061 
  671000   0.96715779    -2.507442    -2.507442   -1.0567086   0.13773608    -2.507442    1.4507334   439061 
  672000   0.96749243   -2.5085769   -2.5085769   -1.0573416   0.13649164   -2.5085769    1.4512353   439061 
  673000   0.96683679   -2.5076391   -2.5076391   -1.0573872    0.1394033   -2.5076391    1.4502519   439061 
  674000   0.96601482   -2.5068517   -2.5068517   -1.0578328   0.13597262   -2.5068517    1.4490189   439061 
  675000   0.96601988   -2.5078275   -2.5078275    -1.058801   0.13611984   -2.5078275    1.4490265   439061 
  676000    0.9661751   -2.5086684   -2.5086684    -1.059409   0.13243664   -2.5086684    1.4492594   439061 
  677000   0.96642168   -2.5094086   -2.5094086   -1.0597794   0.13438739   -2.5094086    1.4496292   439061 
  678000   0.96406959   -2.5058343   -2.5058343   -1.0597332   0.13618582   -2.5058343    1.4461011   439061 
  679000   0.96481652   -2.5077404   -2.5077404   -1.0605189   0.13552242   -2.5077404    1.4472215   439061 
  680000   0.96445246   -2.5072452   -2.5072452   -1.0605698   0.13632434   -2.5072452    1.4466754   439061 
  681000   0.96530917   -2.5090238   -2.5090238   -1.0610634   0.13071243   -2.5090238    1.4479605   439061 
  682000   0.96580013    -2.510777    -2.510777   -1.0620801   0.13456997    -2.510777    1.4486969   439061 
  683000   0.96514209   -2.5091499   -2.5091499     -1.06144   0.13565932   -2.5091499    1.4477098   439061 
  684000   0.96543517   -2.5103769   -2.5103769   -1.0622275    0.1342451   -2.5103769    1.4481495   439061 
  685000   0.96527015   -2.5105692   -2.5105692   -1.0626672    0.1349111   -2.5105692    1.4479019   439061 
  686000   0.96594164    -2.510128    -2.510128   -1.0612188   0.13709858    -2.510128    1.4489092   439061 
  687000   0.96577635   -2.5111664   -2.5111664   -1.0625052    0.1313284   -2.5111664    1.4486612   439061 
  688000   0.96469884   -2.5092869   -2.5092869   -1.0622419   0.13944172   -2.5092869     1.447045   439061 
  689000   0.96630461   -2.5132244   -2.5132244   -1.0637708   0.13507549   -2.5132244    1.4494536   439061 
  690000   0.96655364    -2.513545    -2.513545   -1.0637179   0.13751148    -2.513545    1.4498272   439061 
  691000   0.96421123   -2.5123709   -2.5123709   -1.0660574    0.1401242   -2.5123709    1.4463135   439061 
  692000   0.96467423   -2.5125342   -2.5125342   -1.0655262   0.13659034   -2.5125342     1.447008   439061 
  693000   0.96457434   -2.5127009   -2.5127009   -1.0658427   0.13943118   -2.5127009    1.4468582   439061 
  694000   0.96500476   -2.5136079   -2.5136079   -1.0661041     0.134326   -2.5136079    1.4475038   439061 
  695000   0.96434463   -2.5144295   -2.5144295   -1.0679159   0.13842274   -2.5144295    1.4465137   439061 
  696000    0.9642585   -2.5146656   -2.5146656   -1.0682811   0.13404352   -2.5146656    1.4463845   439061 
  697000   0.96424108   -2.5136837   -2.5136837   -1.0673254   0.12922026   -2.5136837    1.4463583   439061 
  698000   0.96376407   -2.5131735   -2.5131735   -1.0675307   0.13485737   -2.5131735    1.4456428   439061 
  699000   0.96493579   -2.5142864   -2.5142864    -1.066886   0.13368371   -2.5142864    1.4474004   439061 
  700000   0.96497357   -2.5139747   -2.5139747   -1.0665177   0.13185572   -2.5139747    1.4474571   439061 
  701000   0.96623123   -2.5156185   -2.5156185    -1.066275    0.1350914   -2.5156185    1.4493435   439061 
  702000   0.96486551   -2.5130842   -2.5130842   -1.0657893   0.13610176   -2.5130842     1.447295   439061 
  703000   0.96464988   -2.5137044   -2.5137044   -1.0667328   0.13722742   -2.5137044    1.4469715   439061 
  704000   0.96457858   -2.5117985   -2.5117985   -1.0649339   0.13769883   -2.5117985    1.4468646   439061 
[...]
 4832000   0.90844159   -2.6421527   -2.6421527   -1.2794934   0.07889771   -2.6421527    1.3626593   439061 
 4833000   0.90851693   -2.6410797   -2.6410797   -1.2783075  0.075284515   -2.6410797    1.3627723   439061 
 4834000    0.9092058   -2.6418667   -2.6418667   -1.2780611  0.076687302   -2.6418667    1.3638056   439061 
 4835000   0.91051081   -2.6428369   -2.6428369   -1.2770738  0.074098569   -2.6428369    1.3657631   439061 
 4836000   0.90974177   -2.6425023   -2.6425023   -1.2778927  0.077595176   -2.6425023    1.3646095   439061 
 4837000   0.90989906   -2.6432598   -2.6432598   -1.2784143  0.075184955   -2.6432598    1.3648455   439061 
 4838000   0.90845991   -2.6429738   -2.6429738    -1.280287   0.07751652   -2.6429738    1.3626868   439061 
 4839000   0.90989645    -2.644957    -2.644957   -1.2801155  0.075173479    -2.644957    1.3648416   439061 
 4840000   0.90941279   -2.6445219   -2.6445219   -1.2804059  0.073454402   -2.6445219    1.3641161   439061 
 4841000   0.90938032   -2.6439769   -2.6439769   -1.2799096  0.080503761   -2.6439769    1.3640674   439061 
 4842000    0.9089766   -2.6439869   -2.6439869   -1.2805251  0.074555637   -2.6439869    1.3634618   439061 
 4843000   0.90853883   -2.6435462   -2.6435462    -1.280741  0.076456151   -2.6435462    1.3628051   439061 
 4844000   0.90820665   -2.6423177   -2.6423177   -1.2800108  0.076159471   -2.6423177    1.3623069   439061 
 4845000   0.90920864   -2.6420793   -2.6420793   -1.2782694  0.076161571   -2.6420793    1.3638099   439061 
 4846000   0.90904798   -2.6429611   -2.6429611   -1.2793923  0.079214211   -2.6429611    1.3635689   439061 
 4847000   0.90927529   -2.6431668   -2.6431668   -1.2792569  0.074796336   -2.6431668    1.3639098   439061 
 4848000    0.9091745   -2.6441381   -2.6441381   -1.2803795  0.074366929   -2.6441381    1.3637586   439061 
 4849000   0.90822086   -2.6443258   -2.6443258   -1.2819976  0.076228499   -2.6443258    1.3623282   439061 
 4850000   0.90815431   -2.6446811   -2.6446811   -1.2824528   0.07364242   -2.6446811    1.3622284   439061 
 4851000   0.90835975   -2.6441898   -2.6441898   -1.2816532   0.07127263   -2.6441898    1.3625365   439061 
 4852000   0.90862365   -2.6443306   -2.6443306   -1.2813982  0.074729167   -2.6443306    1.3629324   439061 
 4853000   0.90933733    -2.646263    -2.646263   -1.2822601  0.075534177    -2.646263    1.3640029   439061 
 4854000   0.90966144   -2.6449706   -2.6449706   -1.2804815  0.072495171   -2.6449706    1.3644891   439061 
 4855000    0.9085592   -2.6435635   -2.6435635   -1.2807278   0.07719036   -2.6435635    1.3628357   439061 
 4856000   0.90848411   -2.6440897   -2.6440897   -1.2813667  0.079796137   -2.6440897    1.3627231   439061 
 4857000    0.9076843   -2.6433068   -2.6433068   -1.2817834  0.074630944   -2.6433068    1.3615233   439061 
 4858000     0.909249   -2.6460437   -2.6460437   -1.2821733  0.075408486   -2.6460437    1.3638704   439061 
 4859000   0.90998772   -2.6471143   -2.6471143   -1.2821358  0.077473324   -2.6471143    1.3649785   439061 
 4860000   0.90927652   -2.6455303   -2.6455303   -1.2816186  0.078833099   -2.6455303    1.3639117   439061 
 4861000   0.90895294   -2.6453878   -2.6453878   -1.2819615  0.075670768   -2.6453878    1.3634263   439061 
 4862000   0.90955835   -2.6458295   -2.6458295   -1.2814951  0.076093141   -2.6458295    1.3643344   439061 
 4863000   0.90863874   -2.6445684   -2.6445684   -1.2816134  0.071505301   -2.6445684     1.362955   439061 
 4864000   0.90961897   -2.6452636   -2.6452636   -1.2808383  0.077924167   -2.6452636    1.3644253   439061 
 4865000   0.91061741   -2.6465972   -2.6465972   -1.2806742  0.076910826   -2.6465972     1.365923   439061 
 4866000    0.9103542   -2.6456404   -2.6456404   -1.2801122   0.07660792   -2.6456404    1.3655282   439061 
 4867000   0.91175865   -2.6483187   -2.6483187   -1.2806838  0.075424056   -2.6483187    1.3676349   439061 
 4868000   0.91016945   -2.6460477   -2.6460477   -1.2807966  0.081411545   -2.6460477    1.3652511   439061 
 4869000   0.91143626   -2.6475417   -2.6475417   -1.2803905  0.076137396   -2.6475417    1.3671513   439061 
 4870000    0.9111683   -2.6470234   -2.6470234   -1.2802741  0.074994308   -2.6470234    1.3667493   439061 
 4871000   0.91149025   -2.6468892   -2.6468892    -1.279657  0.074216606   -2.6468892    1.3672323   439061 
 4872000   0.91072087   -2.6476983   -2.6476983   -1.2816201  0.078264306   -2.6476983    1.3660782   439061 
 4873000   0.90955203   -2.6461752   -2.6461752   -1.2818503  0.076467136   -2.6461752    1.3643249   439061 
 4874000   0.91014222   -2.6473121   -2.6473121   -1.2821018  0.078823756   -2.6473121    1.3652102   439061 
 4875000    0.9097069   -2.6466942   -2.6466942    -1.282137  0.076233746   -2.6466942    1.3645572   439061 
 4876000   0.91043277   -2.6479428   -2.6479428   -1.2822968  0.077667214   -2.6479428     1.365646   439061 
 4877000   0.90968361   -2.6472645   -2.6472645   -1.2827422  0.074275086   -2.6472645    1.3645223   439061 
 4878000   0.91054371   -2.6476851   -2.6476851   -1.2818727  0.076083629   -2.6476851    1.3658125   439061 
 4879000   0.90961241   -2.6455982   -2.6455982   -1.2811827  0.075406852   -2.6455982    1.3644155   439061 
 4880000   0.90869631   -2.6459115   -2.6459115   -1.2828701  0.079679724   -2.6459115    1.3630414   439061 
 4881000   0.90920044   -2.6464973   -2.6464973   -1.2826998  0.075954155   -2.6464973    1.3637976   439061 
 4882000   0.90952111   -2.6471554   -2.6471554   -1.2828769  0.075001915   -2.6471554    1.3642786   439061 
 4883000   0.90841984   -2.6461605   -2.6461605   -1.2835338   0.07479291   -2.6461605    1.3626267   439061 
 4884000   0.90986626   -2.6470205   -2.6470205   -1.2822242  0.074697018   -2.6470205    1.3647963   439061 
 4885000   0.90894876   -2.6461738   -2.6461738   -1.2827538  0.076028418   -2.6461738      1.36342   439061 
 4886000   0.90899443   -2.6460947   -2.6460947   -1.2826062  0.072170766   -2.6460947    1.3634885   439061 
 4887000   0.90958043   -2.6458714   -2.6458714   -1.2815039  0.074989525   -2.6458714    1.3643675   439061 
 4888000   0.90939714   -2.6448937   -2.6448937   -1.2808011  0.074606732   -2.6448937    1.3640926   439061 
 4889000   0.91058364   -2.6464223   -2.6464223   -1.2805499   0.07868626   -2.6464223    1.3658724   439061 
 4890000     0.908974   -2.6458648   -2.6458648    -1.282407  0.074315855   -2.6458648    1.3634579   439061 
 4891000   0.90846073   -2.6453833   -2.6453833   -1.2826953  0.073678895   -2.6453833     1.362688   439061 
 4892000   0.91036968   -2.6478813   -2.6478813   -1.2823299  0.074571401   -2.6478813    1.3655514   439061 
 4893000   0.90925563   -2.6452079   -2.6452079   -1.2813275  0.076754125   -2.6452079    1.3638803   439061 
 4894000   0.91045647   -2.6472164   -2.6472164   -1.2815348  0.075766654   -2.6472164    1.3656816   439061 
 4895000   0.90950884   -2.6460147   -2.6460147   -1.2817546   0.07256842   -2.6460147    1.3642602   439061 
 4896000   0.90941612   -2.6450743   -2.6450743   -1.2809532  0.079903655   -2.6450743    1.3641211   439061 
 4897000   0.91066674   -2.6459694   -2.6459694   -1.2799724  0.074935566   -2.6459694     1.365997   439061 
 4898000   0.91064561   -2.6459262   -2.6459262   -1.2799609  0.077422455   -2.6459262    1.3659653   439061 
 4899000   0.90989365   -2.6445728   -2.6445728   -1.2797354  0.073188804   -2.6445728    1.3648374   439061 
 4900000   0.91029431   -2.6465645   -2.6465645   -1.2811261  0.073017163   -2.6465645    1.3654384   439061 
 4901000   0.90905843   -2.6436451   -2.6436451   -1.2800605  0.075234828   -2.6436451    1.3635845   439061 
 4902000   0.90857881    -2.643243    -2.643243   -1.2803779  0.073251995    -2.643243    1.3628651   439061 
 4903000   0.90943735   -2.6444179   -2.6444179    -1.280265  0.074763978   -2.6444179    1.3641529   439061 
 4904000   0.91029393   -2.6464477   -2.6464477   -1.2810099   0.07573737   -2.6464477    1.3654378   439061 
 4905000   0.90904676   -2.6440782   -2.6440782   -1.2805112  0.072759205   -2.6440782     1.363567   439061 
 4906000   0.90811234   -2.6444967   -2.6444967   -1.2823313  0.070742603   -2.6444967    1.3621654   439061 
 4907000   0.90962175   -2.6453409   -2.6453409   -1.2809114  0.078513902   -2.6453409    1.3644295   439061 
 4908000   0.90878941   -2.6452217   -2.6452217   -1.2820407  0.075966125   -2.6452217     1.363181   439061 
 4909000   0.90832543   -2.6437088   -2.6437088   -1.2812237  0.073546388   -2.6437088     1.362485   439061 
 4910000   0.90841623   -2.6441056   -2.6441056   -1.2814843  0.071142431   -2.6441056    1.3626212   439061 
 4911000   0.90766135   -2.6444687   -2.6444687   -1.2829798  0.075692422   -2.6444687    1.3614889   439061 
 4912000   0.90855123   -2.6459206   -2.6459206   -1.2830968  0.074255648   -2.6459206    1.3628237   439061 
 4913000   0.90845656   -2.6460358   -2.6460358   -1.2833541  0.077019157   -2.6460358    1.3626817   439061 
 4914000   0.90746076   -2.6448452   -2.6448452   -1.2836572   0.07680223   -2.6448452     1.361188   439061 
 4915000   0.90816586   -2.6454824   -2.6454824   -1.2832367  0.079015231   -2.6454824    1.3622457   439061 
 4916000   0.90914892   -2.6475934   -2.6475934   -1.2838732  0.077575656   -2.6475934    1.3637203   439061 
 4917000   0.90905842   -2.6472416   -2.6472416   -1.2836571  0.068658238   -2.6472416    1.3635845   439061 
 4918000   0.90901761   -2.6470788   -2.6470788   -1.2835555  0.070338545   -2.6470788    1.3635233   439061 
 4919000   0.90919262   -2.6464447   -2.6464447   -1.2826589  0.073808631   -2.6464447    1.3637858   439061 
 4920000   0.91008362   -2.6480541   -2.6480541   -1.2829318  0.079153976   -2.6480541    1.3651223   439061 
 4921000   0.90989839    -2.647301    -2.647301   -1.2824565  0.078419974    -2.647301    1.3648445   439061 
 4922000   0.91014271   -2.6475967   -2.6475967   -1.2823857  0.078100474   -2.6475967     1.365211   439061 
 4923000    0.9126407    -2.650636    -2.650636   -1.2816781  0.079183313    -2.650636    1.3689579   439061 
 4924000   0.91123586   -2.6498567   -2.6498567    -1.283006  0.075636317   -2.6498567    1.3668507   439061 
 4925000   0.90943964   -2.6471328   -2.6471328   -1.2829764  0.077793303   -2.6471328    1.3641564   439061 
 4926000   0.91071193   -2.6479028   -2.6479028    -1.281838  0.077998011   -2.6479028    1.3660648   439061 
 4927000   0.91104283   -2.6480417   -2.6480417   -1.2814806  0.079630524   -2.6480417    1.3665611   439061 
 4928000   0.91135477   -2.6503307   -2.6503307   -1.2833017  0.080885113   -2.6503307     1.367029   439061 
 4929000   0.91051613   -2.6488796   -2.6488796   -1.2831086  0.079531572   -2.6488796    1.3657711   439061 
 4930000   0.91152571   -2.6504319   -2.6504319   -1.2831465  0.074981782   -2.6504319    1.3672854   439061 
 4931000    0.9088581   -2.6476755   -2.6476755   -1.2843915  0.076701439   -2.6476755     1.363284   439061 
 4932000   0.90984883   -2.6507404   -2.6507404   -1.2859703  0.075463534   -2.6507404    1.3647701   439061 
 4933000   0.90939566     -2.64806     -2.64806   -1.2839696  0.073060783     -2.64806    1.3640904   439061 
 4934000   0.91033433   -2.6498165   -2.6498165   -1.2843181  0.079028056   -2.6498165    1.3654984   439061 
 4935000   0.90967289   -2.6500165   -2.6500165   -1.2855103  0.072266309   -2.6500165    1.3645062   439061 
 4936000   0.90947528    -2.650046    -2.650046   -1.2858362   0.07788089    -2.650046    1.3642098   439061 
 4937000   0.90923956   -2.6503314   -2.6503314   -1.2864752  0.081732365   -2.6503314    1.3638562   439061 
 4938000   0.90841609   -2.6499838   -2.6499838   -1.2873628  0.070042061   -2.6499838     1.362621   439061 
 4939000   0.90951617   -2.6504888   -2.6504888   -1.2862177  0.077855533   -2.6504888    1.3642711   439061 
 4940000   0.90869173   -2.6501288   -2.6501288   -1.2870943  0.078668199   -2.6501288    1.3630345   439061 
 4941000   0.91008078   -2.6522288   -2.6522288   -1.2871107  0.070651415   -2.6522288    1.3651181   439061 
 4942000   0.90867285   -2.6504577   -2.6504577   -1.2874515  0.075469654   -2.6504577    1.3630062   439061 
 4943000   0.90981441   -2.6512897   -2.6512897   -1.2865712  0.082281522   -2.6512897    1.3647185   439061 
 4944000   0.91069456   -2.6519818   -2.6519818   -1.2859431  0.078252421   -2.6519818    1.3660387   439061 
 4945000    0.9103906   -2.6519549   -2.6519549   -1.2863721  0.074975269   -2.6519549    1.3655828   439061 
 4946000   0.90821099   -2.6489858   -2.6489858   -1.2866724  0.084034158   -2.6489858    1.3623134   439061 
 4947000   0.90903607    -2.650783    -2.650783    -1.287232  0.075234223    -2.650783     1.363551   439061 
 4948000   0.90910769   -2.6515765   -2.6515765   -1.2879181   0.07419502   -2.6515765    1.3636584   439061 
 4949000   0.90981791   -2.6519392   -2.6519392   -1.2872155  0.077425785   -2.6519392    1.3647238   439061 
 4950000   0.90929684   -2.6507323   -2.6507323   -1.2867902  0.076388926   -2.6507323    1.3639421   439061 
 4951000   0.90908954   -2.6509726   -2.6509726   -1.2873414  0.078694274   -2.6509726    1.3636312   439061 
 4952000    0.9093881   -2.6513471   -2.6513471    -1.287268  0.074302328   -2.6513471     1.364079   439061 
 4953000   0.90948443   -2.6518263   -2.6518263   -1.2876027  0.076021577   -2.6518263    1.3642235   439061 
 4954000   0.91041587   -2.6521076   -2.6521076   -1.2864869  0.077274397   -2.6521076    1.3656207   439061 
 4955000   0.91012315   -2.6521999   -2.6521999   -1.2870183  0.079773234   -2.6521999    1.3651816   439061 
 4956000    0.9083818   -2.6497941   -2.6497941   -1.2872245  0.077444619   -2.6497941    1.3625696   439061 
 4957000   0.90908187   -2.6522525   -2.6522525   -1.2886328  0.075220551   -2.6522525    1.3636197   439061 
 4958000   0.90916185   -2.6515746   -2.6515746    -1.287835  0.076884366   -2.6515746    1.3637397   439061 
 4959000   0.91079885   -2.6527251   -2.6527251     -1.28653    0.0766737   -2.6527251    1.3661952   439061 
 4960000   0.91033006   -2.6515476   -2.6515476   -1.2860556  0.082925574   -2.6515476     1.365492   439061 
 4961000   0.90975482   -2.6510031   -2.6510031    -1.286374  0.072631931   -2.6510031    1.3646291   439061 
 4962000     0.909504   -2.6513606   -2.6513606   -1.2871077  0.074827004   -2.6513606    1.3642529   439061 
 4963000   0.90888749   -2.6514746   -2.6514746   -1.2881465  0.078172008   -2.6514746    1.3633281   439061 
 4964000   0.90959241   -2.6515021   -2.6515021   -1.2871166  0.074556483   -2.6515021    1.3643855   439061 
 4965000   0.91057153    -2.652165    -2.652165   -1.2863108  0.076883481    -2.652165    1.3658542   439061 
 4966000   0.91218034   -2.6542524   -2.6542524    -1.285985  0.075974054   -2.6542524    1.3682674   439061 
 4967000   0.90927777   -2.6496939   -2.6496939   -1.2857803  0.078283977   -2.6496939    1.3639135   439061 
 4968000   0.91092852   -2.6519771   -2.6519771   -1.2855874  0.079183907   -2.6519771    1.3663897   439061 
 4969000   0.91128553   -2.6516438   -2.6516438   -1.2847186  0.075351738   -2.6516438    1.3669252   439061 
 4970000   0.91110751   -2.6512708   -2.6512708   -1.2846127  0.072163221   -2.6512708    1.3666582   439061 
 4971000   0.91047214   -2.6505079   -2.6505079   -1.2848028  0.076097742   -2.6505079    1.3657051   439061 
 4972000   0.91043172   -2.6506255   -2.6506255    -1.284981  0.075406301   -2.6506255    1.3656445   439061 
 4973000   0.91015763   -2.6485752   -2.6485752   -1.2833419   0.07718695   -2.6485752    1.3652333   439061 
 4974000   0.90967968   -2.6500782   -2.6500782   -1.2855618  0.079909126   -2.6500782    1.3645164   439061 
 4975000   0.90994793   -2.6500791   -2.6500791   -1.2851603  0.077945532   -2.6500791    1.3649188   439061 
 4976000   0.91031619   -2.6510526   -2.6510526   -1.2855815  0.073534865   -2.6510526    1.3654712   439061 
 4977000   0.90930677   -2.6500062   -2.6500062   -1.2860491  0.073666237   -2.6500062    1.3639571   439061 
 4978000   0.90992176   -2.6500545   -2.6500545    -1.285175  0.073790326   -2.6500545    1.3648795   439061 
 4979000   0.90908589   -2.6501138   -2.6501138   -1.2864881  0.077135729   -2.6501138    1.3636257   439061 
 4980000   0.90835415   -2.6484677   -2.6484677   -1.2859396  0.077197043   -2.6484677    1.3625281   439061 
 4981000   0.90912922   -2.6484592   -2.6484592   -1.2847684  0.075066024   -2.6484592    1.3636907   439061 
 4982000   0.90885565   -2.6489687   -2.6489687   -1.2856883   0.07536059   -2.6489687    1.3632804   439061 
 4983000    0.9075511   -2.6466159   -2.6466159   -1.2852924  0.073354854   -2.6466159    1.3613235   439061 
 4984000    0.9091666   -2.6481129   -2.6481129   -1.2843661  0.076503055   -2.6481129    1.3637468   439061 
 4985000   0.90931109    -2.648765    -2.648765   -1.2848014  0.077440623    -2.648765    1.3639635   439061 
 4986000   0.90901375   -2.6492216   -2.6492216   -1.2857041  0.075766022   -2.6492216    1.3635175   439061 
 4987000    0.9095964   -2.6490282   -2.6490282   -1.2846367  0.074415319   -2.6490282    1.3643915   439061 
 4988000    0.9081404   -2.6479589   -2.6479589   -1.2857514  0.081135995   -2.6479589    1.3622075   439061 
 4989000   0.90875677   -2.6494055   -2.6494055   -1.2862734  0.074103176   -2.6494055    1.3631321   439061 
 4990000   0.90937558   -2.6499555   -2.6499555   -1.2858952  0.079600485   -2.6499555    1.3640603   439061 
 4991000   0.90966682     -2.64902     -2.64902   -1.2845228  0.077818762     -2.64902    1.3644971   439061 
 4992000   0.91029749   -2.6507553   -2.6507553   -1.2853122  0.077506855   -2.6507553    1.3654431   439061 
 4993000   0.91059179   -2.6501108   -2.6501108   -1.2842263  0.078394068   -2.6501108    1.3658846   439061 
 4994000   0.90989821   -2.6495219   -2.6495219   -1.2846777  0.077775442   -2.6495219    1.3648442   439061 
 4995000   0.90999178   -2.6493732   -2.6493732   -1.2843886  0.075519047   -2.6493732    1.3649846   439061 
 4996000   0.90975261   -2.6496834   -2.6496834   -1.2850576  0.071704211   -2.6496834    1.3646258   439061 
 4997000   0.91023007   -2.6496143   -2.6496143   -1.2842723  0.077239072   -2.6496143     1.365342   439061 
 4998000   0.90963186   -2.6498832   -2.6498832   -1.2854385  0.076611633   -2.6498832    1.3644447   439061 
 4999000   0.90989387   -2.6490519   -2.6490519   -1.2842142  0.076950729   -2.6490519    1.3648377   439061 
 5000000   0.90987793    -2.649358    -2.649358   -1.2845442  0.082621952    -2.649358    1.3648138   439061 
Loop time of 8140.4 on 192 procs for 5000000 steps with 439061 atoms

Performance: 265343.109 tau/day, 614.220 timesteps/s
89.2% CPU use with 192 MPI tasks x 1 OpenMP threads

MPI task timing breakdown:
Section |  min time  |  avg time  |  max time  |%varavg|  %CPU | %total
-----------------------------------------------------------------------
Pair    | 1997.2     | 3705.1     | 4465.8     |1138.8 |  91.4 | 45.52
Bond    | 3.0915     | 3.316      | 3.4943     |   4.8 | 100.0 |  0.04
Neigh   | 1021.9     | 1437.3     | 1611.6     | 407.9 |  98.1 | 17.66
Comm    | 1092.6     | 2309.6     | 4359.9     |1760.7 |  84.8 | 28.37
Output  | 278.05     | 278.7      | 278.71     |   0.3 |  67.5 |  3.42
Modify  | 130.11     | 217.38     | 665.38     |1077.8 |  88.8 |  2.67
Other   |            | 189        |            |       |       |  2.32

Nlocal:        2286.78 ave        2743 max        1777 min
Histogram: 2 2 4 8 48 96 25 2 0 5
Nghost:        3227.04 ave        3656 max        2163 min
Histogram: 4 4 8 18 11 7 4 27 76 33
Neighs:        56698.0 ave       68372 max       15525 min
Histogram: 5 6 4 3 4 3 4 39 79 45

Total # of neighbors = 10886009
Ave neighs/atom = 24.793842
Ave special neighs/atom = 0.0000000
Neighbor list builds = 500000
Dangerous builds = 495000
System init for write_data ...
Total wall time: 2:15:44
