LAMMPS (24 Dec 2020)
OMP_NUM_THREADS environment is not set. Defaulting to 1 thread. (src/comm.cpp:94)
  using 1 OpenMP thread(s) per MPI task
#Read the equilibrated lj fluid and add nanocubes

units           lj
atom_style      full
atom_modify     map array first cubes
dimension       3
boundary        p p f
pair_style      lj/cut/opt 2.5

variable        sigma           equal 1.0
variable        epsilon         equal 1.0
read_restart	restart.dat.3000000
Reading restart file ...
  restart file = 24 Dec 2020, LAMMPS = 24 Dec 2020
WARNING: Restart file used different # of processors: 48 vs. 288 (src/read_restart.cpp:697)
  restoring atom style full from restart
  orthogonal box = (0.0000000 0.0000000 0.0000000) to (80.000000 80.000000 160.00000)
  6 by 4 by 12 MPI processor grid
  restoring pair style lj/cut/opt from restart
  518400 atoms
Finding 1-2 1-3 1-4 neighbors ...
  special bond factors lj:    0        0        0       
  special bond factors coul:  0        0        0       
     0 = max # of 1-2 neighbors
     0 = max # of 1-3 neighbors
     0 = max # of 1-4 neighbors
     1 = max # of special neighbors
  special bonds CPU = 2.376 seconds
  read_restart CPU = 2.721 seconds

group		solvent type 1
518400 atoms in group solvent

read_data	data_150.cubes group cubes add append
Reading data file ...
  orthogonal box = (0.0000000 0.0000000 0.0000000) to (80.000000 80.000000 160.00000)
  6 by 4 by 12 MPI processor grid
  reading atoms ...
  200025 atoms
  reading velocities ...
  200025 velocities
Finding 1-2 1-3 1-4 neighbors ...
  special bond factors lj:    0        0        0       
  special bond factors coul:  0        0        0       
     0 = max # of 1-2 neighbors
     0 = max # of 1-3 neighbors
     0 = max # of 1-4 neighbors
     1 = max # of special neighbors
  special bonds CPU = 0.059 seconds
  read_data CPU = 0.569 seconds

group 		hull  type 2
78050 atoms in group hull
group 		dummy type 3
121975 atoms in group dummy

neighbor      0.4 bin
neigh_modify  exclude molecule/intra cubes


pair_modify   shift yes

pair_coeff    1 1 1.0 1.0 #solvent
pair_coeff    2 2 1.0 1.0 1.12 #np
pair_coeff    3 3 0.0 0.0 0.0 #dummy
pair_coeff    2 3 0.0 0.0 0.0 #np dummy
pair_coeff    1 2 ${eps} ${sig} ${nscut} #np solvent
pair_coeff    1 2 2.0 ${sig} ${nscut} 
pair_coeff    1 2 2.0 1.0 ${nscut} 
pair_coeff    1 2 2.0 1.0 4.0 
pair_coeff    1 3 0.0 0.0 2.5 #dummy solvent

# delete solvent where the cubes are
delete_atoms  overlap 2.0 solvent cubes
System init for delete_atoms ...
Neighbor list info ...
  update every 1 steps, delay 10 steps, check yes
  max neighbors/atom: 2000, page size: 100000
  master list distance cutoff = 4.4
  ghost atom cutoff = 4.4
  binsize = 2.2, bins = 37 37 73
  2 neighbor lists, perpetual/occasional/extra = 1 1 0
  (1) command delete_atoms, occasional
      attributes: full, newton on
      pair build: full/bin
      stencil: full/bin/3d
      bin: standard
  (2) pair lj/cut/opt, perpetual
      attributes: half, newton on
      pair build: half/bin/newton
      stencil: half/bin/3d/newton
      bin: standard
WARNING: Delete_atoms cutoff > minimum neighbor cutoff (src/delete_atoms.cpp:307)
WARNING: Ignoring 'compress yes' for molecular system (src/delete_atoms.cpp:125)
Deleted 198079 atoms, new total = 520346



pair_coeff    1 1 1.0 1.0 #solvent
pair_coeff    2 2 1.0 1.0 1.12 #np
pair_coeff    3 3 0.0 0.0 0.0 #dummy
pair_coeff    2 3 0.0 0.0 0.0 #np dummy
pair_coeff    1 2 ${eps} ${sig} ${nscut} #np solvent
pair_coeff    1 2 2.0 ${sig} ${nscut} 
pair_coeff    1 2 2.0 1.0 ${nscut} 
pair_coeff    1 2 2.0 1.0 4.0 
pair_coeff    1 3 0.0 0.0 0.0 #dummy solvent


comm_modify   mode multi cutoff/multi 1 2.5 cutoff/multi 2 2.5 cutoff/multi 3 6.95

reset_timestep 	0

balance 	1.05 shift z 10 1.05
Balancing ...
Neighbor list info ...
  update every 1 steps, delay 10 steps, check yes
  max neighbors/atom: 2000, page size: 100000
  master list distance cutoff = 4.4
  ghost atom cutoff = 6.95
  binsize = 2.2, bins = 37 37 73
  1 neighbor lists, perpetual/occasional/extra = 1 0 0
  (1) pair lj/cut/opt, perpetual
      attributes: half, newton on
      pair build: half/bin/newton
      stencil: half/bin/3d/newton
      bin: standard
 rebalancing time: 0.003 seconds
  iteration count = 4
  initial/final maximal load/proc = 2181.0000 2317.0000
  initial/final imbalance factor  = 1.2071353 1.2824082
  x cuts: 0.0000000 0.16666667 0.33333333 0.50000000 0.66666667 0.83333333 1.0000000
  y cuts: 0.0000000 0.25000000 0.50000000 0.75000000 1.0000000
  z cuts: 0.0000000 0.078125000 0.16145833 0.25520833 0.33854167 0.41145833 0.49479167 0.56770833 0.64062500 0.71354167 0.78645833 0.85937500 1.0000000

####################### WALLS ###########################

variable       epsilonWall equal 2*${epsilon}
variable       epsilonWall equal 2*1
variable       repulsive   equal   0.7147*${sigma}
variable       repulsive   equal   0.7147*1
variable       full	   equal   3*${sigma}
variable       full	   equal   3*1
region         lowWall block EDGE EDGE EDGE EDGE EDGE 2

fix            topWall all wall/lj93 zhi EDGE 	       ${epsilonWall} ${sigma} ${repulsive} units box
fix            topWall all wall/lj93 zhi EDGE 	       2 ${sigma} ${repulsive} units box
fix            topWall all wall/lj93 zhi EDGE 	       2 1 ${repulsive} units box
fix            topWall all wall/lj93 zhi EDGE 	       2 1 0.7147 units box
fix            lowSol solvent wall/lj93 zlo EDGE                ${epsilonWall} ${sigma} ${full} units box
fix            lowSol solvent wall/lj93 zlo EDGE                2 ${sigma} ${full} units box
fix            lowSol solvent wall/lj93 zlo EDGE                2 1 ${full} units box
fix            lowSol solvent wall/lj93 zlo EDGE                2 1 3 units box
fix 	       lowCub cubes wall/lj93 zlo EDGE                ${epsilonWall} ${sigma} ${repulsive} units box
fix 	       lowCub cubes wall/lj93 zlo EDGE                2 ${sigma} ${repulsive} units box
fix 	       lowCub cubes wall/lj93 zlo EDGE                2 1 ${repulsive} units box
fix 	       lowCub cubes wall/lj93 zlo EDGE                2 1 0.7147 units box


###################### COMPUTES ##########################

compute        bin1 solvent chunk/atom bin/1d z lower 1.0 units box


######################  FIXES ############################


fix             peclet solvent ave/chunk 10 10 10000 bin1 density/number norm                  none ave one file density.profile

fix              temp solvent ave/chunk 10 10 10000 bin1 temp norm                  none ave one file temp.profile

fix             1 cubes rigid/nve/small molecule
  create bodies CPU = 0.001 seconds
  175 rigid bodies with 200025 atoms
  6.9282032 = max distance from body owner to body atom

fix             2 solvent nve# temp ${temp} ${temp} 10


## Thermostat
region          regthermo block EDGE EDGE EDGE EDGE 0 15
group           thermo dynamic solvent region regthermo every 1000
dynamic group thermo defined
fix             3 thermo langevin ${temp} ${temp} 10 156453
fix             3 thermo langevin 1.0 ${temp} 10 156453
fix             3 thermo langevin 1.0 1.0 10 156453


#### Load balancing

fix             bal all balance 1000 1.05 shift z 10 1.05

############### Diagnostics and computes ###################

compute        	com cubes          rigid/local   1 mol x y z
compute        	quat cubes         rigid/local   1 mol quatw quati quatj quatk

compute 	cc2 cubes 	   chunk/atom 	 molecule
compute 	msd cubes 	   msd/chunk 	 cc2

fix 		msd all ave/time  1 1 10000 c_msd[*] file dump.msd ave one mode vector

dump            1 all custom 500000 dump.lammpstrj id mol type x y z
dump		cubetrj hull custom 500000 cubes.lammpstrj id mol type x y z
dump            com cubes local 10000 dump.*.xyz c_com[*]
dump	        xyz hull xyz 100000 cubes.xyz
dump            quat cubes      local 10000 dump.*.quat c_quat[*]
#dump		mol cubes molfile 10000 mol.xyz xyz


dump            2 all image 10000 image.*.png type type
dump_modify     2 pad 8
dump		image cubes image 10000 image_cubes.*.png type type
dump_modify	image pad 8
dump            3 all movie 5000 movie.avi type type
dump		4 cubes movie 5000 movie_cubes.avi type type


thermo          1000
thermo_style    custom step temp epair evdwl etotal press pe ke atoms

restart         1000000 restart.dat
timestep        0.005
timer           full
New timer settings: style=full  mode=nosync  timeout=off

run 		4000000
Per MPI rank memory allocation (min/avg/max) = 15.95 | 21.54 | 24.07 Mbytes
Step Temp E_pair E_vdwl TotEng Press PotEng KinEng Atoms 
       0   0.99744477   -1.9580293   -1.9580293   -1.0359968 -0.0041056528   -1.9580293   0.92203249   520346 
    1000    1.2220946   -2.1768432   -2.1768432   -1.0471456  0.095011302   -2.1768432    1.1296976   520346 
    2000    1.3057362   -2.2767576   -2.2767576   -1.0697422    0.1475529   -2.2767576    1.2070154   520346 
    3000     1.342761   -2.3335299   -2.3335299   -1.0922889    0.1985802   -2.3335299    1.2412409   520346 
    4000    1.3550427   -2.3658121   -2.3658121   -1.1132181   0.21625655   -2.3658121     1.252594   520346 
    5000    1.3538949   -2.3847662   -2.3847662   -1.1332332   0.19924439   -2.3847662     1.251533   520346 
    6000    1.3521295   -2.4017511   -2.4017511     -1.15185   0.20959187   -2.4017511    1.2499012   520346 
    7000    1.3495777   -2.4171346   -2.4171346   -1.1695924   0.19469502   -2.4171346    1.2475422   520346 
    8000    1.3426634   -2.4290832   -2.4290832   -1.1879325   0.18835553   -2.4290832    1.2411507   520346 
    9000    1.3394123   -2.4447051   -2.4447051   -1.2065597    0.2019561   -2.4447051    1.2381454   520346 
   10000    1.3365514   -2.4587179   -2.4587179   -1.2232171   0.18680015   -2.4587179    1.2355008   520346 
   11000    1.3322904   -2.4724448   -2.4724448   -1.2408829   0.20577423   -2.4724448    1.2315619   520346 
   12000    1.3346817    -2.488873    -2.488873   -1.2551004   0.21739189    -2.488873    1.2337725   520346 
   13000    1.3381473   -2.5068559   -2.5068559   -1.2698799   0.21678243   -2.5068559    1.2369761   520346 
   14000    1.3439296   -2.5245398   -2.5245398   -1.2822186    0.2384789   -2.5245398    1.2423212   520346 
   15000    1.3464648   -2.5390111   -2.5390111   -1.2943464   0.22310307   -2.5390111    1.2446647   520346 
   16000    1.3409989   -2.5447639   -2.5447639   -1.3051518   0.21580996   -2.5447639    1.2396121   520346 
   17000    1.3346369   -2.5495037   -2.5495037   -1.3157727    0.2334988   -2.5495037    1.2337311   520346 
   18000    1.3231602   -2.5488377   -2.5488377   -1.3257156   0.21661202   -2.5488377    1.2231221   520346 
   19000    1.3162408   -2.5531033   -2.5531033   -1.3363775   0.21034894   -2.5531033    1.2167258   520346 
   20000    1.3144498   -2.5595325   -2.5595325   -1.3444623    0.2067232   -2.5595325    1.2150702   520346 
   21000    1.3070563   -2.5615905   -2.5615905   -1.3533548   0.20303986   -2.5615905    1.2082357   520346 
   22000    1.3017603   -2.5638444   -2.5638444   -1.3605043   0.19047551   -2.5638444    1.2033401   520346 
   23000     1.300031   -2.5691846   -2.5691846    -1.367443   0.20145172   -2.5691846    1.2017416   520346 
   24000    1.2977491   -2.5737869   -2.5737869   -1.3741547   0.18504501   -2.5737869    1.1996322   520346 
   25000    1.2921497   -2.5741389   -2.5741389   -1.3796828   0.15531068   -2.5741389    1.1944561   520346 
   26000    1.2915197   -2.5795637   -2.5795637   -1.3856899    0.1975461   -2.5795637    1.1938738   520346 
   27000    1.2893501   -2.5832481   -2.5832481   -1.3913799   0.17625524   -2.5832481    1.1918682   520346 
   28000    1.2901657   -2.5899138   -2.5899138   -1.3972917   0.16767587   -2.5899138    1.1926221   520346 
   29000    1.2878747   -2.5945345   -2.5945345   -1.4040301   0.18560676   -2.5945345    1.1905044   520346 
   30000    1.2875433   -2.6003327   -2.6003327   -1.4101347   0.18331832   -2.6003327     1.190198   520346 
   31000    1.2845127   -2.6038143   -2.6038143   -1.4164178   0.18895465   -2.6038143    1.1873965   520346 
   32000    1.2813116   -2.6074442   -2.6074442   -1.4230067   0.18345028   -2.6074442    1.1844375   520346 
   33000    1.2792675    -2.612116    -2.612116   -1.4295681   0.20758701    -2.612116    1.1825479   520346 
   34000    1.2796997   -2.6180733   -2.6180733   -1.4351259   0.19260162   -2.6180733    1.1829474   520346 
   35000    1.2785954   -2.6219234   -2.6219234   -1.4399968   0.18246386   -2.6219234    1.1819266   520346 
   36000    1.2769866   -2.6255492   -2.6255492   -1.4451097   0.18309582   -2.6255492    1.1804395   520346 
   37000    1.2748993   -2.6294291   -2.6294291   -1.4509192   0.19017205   -2.6294291    1.1785099   520346 
   38000    1.2767687    -2.634855    -2.634855    -1.454617   0.19491132    -2.634855     1.180238   520346 
   39000    1.2713383   -2.6336495   -2.6336495   -1.4584313   0.17126596   -2.6336495    1.1752182   520346 
   40000    1.2717513   -2.6379868   -2.6379868   -1.4623868   0.19184196   -2.6379868       1.1756   520346 
   41000    1.2702093   -2.6404752   -2.6404752   -1.4663007   0.18941415   -2.6404752    1.1741745   520346 
   42000    1.2688424   -2.6438548   -2.6438548   -1.4709439   0.17948687   -2.6438548     1.172911   520346 
   43000     1.266094   -2.6463157   -2.6463157   -1.4759453   0.16749082   -2.6463157    1.1703704   520346 
   44000    1.2668683   -2.6517688   -2.6517688   -1.4806826   0.15640834   -2.6517688    1.1710861   520346 
   45000    1.2664502   -2.6556099   -2.6556099   -1.4849103   0.18952747   -2.6556099    1.1706996   520346 
   46000    1.2663638   -2.6583657   -2.6583657   -1.4877459   0.17108215   -2.6583657    1.1706198   520346 
   47000    1.2646028   -2.6605581   -2.6605581   -1.4915662    0.1742503   -2.6605581     1.168992   520346 
   48000    1.2637068   -2.6629641   -2.6629641   -1.4948004   0.15873735   -2.6629641    1.1681636   520346 
   49000    1.2621783    -2.665049    -2.665049   -1.4982983    0.1766583    -2.665049    1.1667507   520346 
   50000    1.2609027   -2.6681043   -2.6681043   -1.5025327    0.1987655   -2.6681043    1.1655716   520346 
   51000    1.2593268   -2.6700012   -2.6700012   -1.5058864   0.18673204   -2.6700012    1.1641148   520346 
   52000    1.2572941    -2.671049    -2.671049   -1.5088132   0.18245121    -2.671049    1.1622358   520346 
   53000    1.2566968   -2.6736278   -2.6736278   -1.5119441   0.18368832   -2.6736278    1.1616837   520346 
   54000    1.2589079   -2.6793284   -2.6793284   -1.5156008   0.17065527   -2.6793284    1.1637276   520346 
   55000    1.2571764    -2.681292    -2.681292    -1.519165   0.18827987    -2.681292     1.162127   520346 
   56000     1.257871   -2.6851651   -2.6851651    -1.522396   0.17383287   -2.6851651    1.1627691   520346 
   57000    1.2562176   -2.6881042   -2.6881042   -1.5268636   0.19017247   -2.6881042    1.1612407   520346 
   58000    1.2548644    -2.689207    -2.689207   -1.5292172   0.17494054    -2.689207    1.1599898   520346 
   59000    1.2547334    -2.691867    -2.691867   -1.5319982   0.17617379    -2.691867    1.1598687   520346 
   60000    1.2540276   -2.6940995   -2.6940995   -1.5348832   0.17460786   -2.6940995    1.1592163   520346 
   61000    1.2515122   -2.6948626   -2.6948626   -1.5379715    0.1674474   -2.6948626    1.1568911   520346 
   62000    1.2523346   -2.6983977   -2.6983977   -1.5407465   0.18100017   -2.6983977    1.1576513   520346 
   63000    1.2487829   -2.6976003   -2.6976003   -1.5432323   0.17062006   -2.6976003    1.1543681   520346 
   64000    1.2493374   -2.7020456   -2.7020456   -1.5471649   0.15854674   -2.7020456    1.1548806   520346 
   65000    1.2457998   -2.7010077   -2.7010077   -1.5493972   0.18124972   -2.7010077    1.1516106   520346 
   66000    1.2435899   -2.7022464   -2.7022464   -1.5526787   0.15001893   -2.7022464    1.1495677   520346 
   67000    1.2443136   -2.7056608   -2.7056608   -1.5554241   0.18139356   -2.7056608    1.1502367   520346 
   68000    1.2408358   -2.7050046   -2.7050046   -1.5579828   0.16266258   -2.7050046    1.1470218   520346 
   69000    1.2416597   -2.7081401   -2.7081401   -1.5603566   0.18550248   -2.7081401    1.1477835   520346 
   70000    1.2378916   -2.7087047   -2.7087047   -1.5644044   0.16063187   -2.7087047    1.1443002   520346 
   71000    1.2391978   -2.7128736   -2.7128736   -1.5673659   0.16770742   -2.7128736    1.1455077   520346 
   72000    1.2359055   -2.7116631   -2.7116631   -1.5691988   0.17765956   -2.7116631    1.1424643   520346 
   73000     1.234976   -2.7134209   -2.7134209   -1.5718158   0.16709794   -2.7134209    1.1416051   520346 
   74000    1.2361636    -2.717107    -2.717107   -1.5744041   0.17147262    -2.717107    1.1427029   520346 
   75000    1.2345495   -2.7189811   -2.7189811   -1.5777703   0.15035687   -2.7189811    1.1412108   520346 
   76000    1.2338826    -2.721065    -2.721065   -1.5804706   0.15321212    -2.721065    1.1405944   520346 
   77000    1.2349768   -2.7241288   -2.7241288    -1.582523   0.15275506   -2.7241288    1.1416058   520346 
   78000    1.2328426   -2.7245065   -2.7245065   -1.5848735   0.15774745   -2.7245065     1.139633   520346 
   79000    1.2320488   -2.7259414   -2.7259414   -1.5870422   0.17029517   -2.7259414    1.1388991   520346 
   80000    1.2306069   -2.7267403   -2.7267403    -1.589174   0.15880355   -2.7267403    1.1375663   520346 
   81000    1.2295324   -2.7278769   -2.7278769   -1.5913039   0.15681669   -2.7278769     1.136573   520346 
   82000    1.2288207   -2.7299326   -2.7299326   -1.5940174   0.16721253   -2.7299326    1.1359152   520346 
   83000    1.2314328   -2.7348119   -2.7348119   -1.5964821   0.16348106   -2.7348119    1.1383298   520346 
   84000    1.2307601   -2.7371162   -2.7371162   -1.5994083   0.17041681   -2.7371162    1.1377079   520346 
   85000    1.2296086   -2.7394685   -2.7394685   -1.6028251   0.17173948   -2.7394685    1.1366434   520346 
   86000    1.2267575   -2.7395002   -2.7395002   -1.6054923   0.15518381   -2.7395002     1.134008   520346 
   87000    1.2282937   -2.7431896   -2.7431896   -1.6077616   0.18189508   -2.7431896     1.135428   520346 
   88000    1.2249125   -2.7425739   -2.7425739   -1.6102715   0.15682587   -2.7425739    1.1323024   520346 
   89000    1.2239224   -2.7434407   -2.7434407   -1.6120535   0.16746014   -2.7434407    1.1313872   520346 
   90000    1.2254607   -2.7471186   -2.7471186   -1.6143094    0.1532785   -2.7471186    1.1328092   520346 
   91000    1.2221719   -2.7469475   -2.7469475   -1.6171785   0.14841824   -2.7469475     1.129769   520346 
   92000    1.2223907   -2.7481902   -2.7481902   -1.6182188   0.16458441   -2.7481902    1.1299713   520346 
   93000    1.2216847   -2.7502416   -2.7502416    -1.620923    0.1529816   -2.7502416    1.1293186   520346 
   94000    1.2215179    -2.752664    -2.752664   -1.6234995   0.16303876    -2.752664    1.1291645   520346 
   95000    1.2175666   -2.7515911   -2.7515911   -1.6260792   0.16947659   -2.7515911    1.1255119   520346 
   96000    1.2168276   -2.7540235   -2.7540235   -1.6291947   0.16648586   -2.7540235    1.1248288   520346 
   97000    1.2142967   -2.7534344   -2.7534344   -1.6309451   0.14327912   -2.7534344    1.1224893   520346 
   98000    1.2130334   -2.7542227   -2.7542227   -1.6329013    0.1510034   -2.7542227    1.1213215   520346 
   99000    1.2122013   -2.7553367   -2.7553367   -1.6347845    0.1649622   -2.7553367    1.1205523   520346 
  100000    1.2135589   -2.7591593   -2.7591593   -1.6373521   0.14483263   -2.7591593    1.1218073   520346 
  101000    1.2122905   -2.7601532   -2.7601532   -1.6395185   0.15998532   -2.7601532    1.1206347   520346 
  102000    1.2134622    -2.762928    -2.762928   -1.6412101   0.15832473    -2.762928    1.1217179   520346 
  103000    1.2121012   -2.7645761   -2.7645761   -1.6441164   0.14547365   -2.7645761    1.1204597   520346 
  104000    1.2102329   -2.7643031   -2.7643031   -1.6455704   0.14989856   -2.7643031    1.1187327   520346 
  105000    1.2111462    -2.767863    -2.767863   -1.6482861   0.14635959    -2.767863    1.1195769   520346 
  106000    1.2108475   -2.7686682   -2.7686682   -1.6493674   0.13953995   -2.7686682    1.1193008   520346 
  107000    1.2088016   -2.7692298   -2.7692298   -1.6518202   0.14751281   -2.7692298    1.1174096   520346 
  108000    1.2083439   -2.7710871   -2.7710871   -1.6541005   0.15348108   -2.7710871    1.1169865   520346 
  109000     1.209467   -2.7736987   -2.7736987    -1.655674   0.15900982   -2.7736987    1.1180247   520346 
  110000    1.2068489   -2.7732268   -2.7732268   -1.6576222      0.15051   -2.7732268    1.1156045   520346 
  111000     1.205522    -2.774091    -2.774091   -1.6597131   0.13890781    -2.774091     1.114378   520346 
  112000    1.2036026   -2.7751564   -2.7751564   -1.6625527   0.14154229   -2.7751564    1.1126037   520346 
  113000    1.2029437   -2.7752714   -2.7752714   -1.6632768   0.14374935   -2.7752714    1.1119946   520346 
  114000    1.2053102   -2.7790256   -2.7790256   -1.6648434   0.16904238   -2.7790256    1.1141822   520346 
  115000    1.2034786   -2.7783131   -2.7783131   -1.6658241   0.14324969   -2.7783131    1.1124891   520346 
  116000    1.2033466   -2.7805512   -2.7805512   -1.6681842   0.12661937   -2.7805512     1.112367   520346 
  117000    1.2017994    -2.782338    -2.782338   -1.6714012   0.15235629    -2.782338    1.1109368   520346 
  118000    1.1997957   -2.7815044   -2.7815044   -1.6724198   0.14079058   -2.7815044    1.1090846   520346 
  119000    1.2008557   -2.7851561   -2.7851561   -1.6750916   0.15984085   -2.7851561    1.1100644   520346 
  120000    1.1984509    -2.785259    -2.785259   -1.6774176   0.14519857    -2.785259    1.1078414   520346 
  121000     1.197813   -2.7870719   -2.7870719   -1.6798201   0.14955627   -2.7870719    1.1072517   520346 
  122000     1.198126   -2.7883398   -2.7883398   -1.6807987   0.11667988   -2.7883398    1.1075411   520346 
  123000    1.1987489   -2.7905873   -2.7905873   -1.6824704   0.13316604   -2.7905873    1.1081169   520346 
  124000    1.1961655   -2.7897026   -2.7897026   -1.6839737   0.12573238   -2.7897026    1.1057289   520346 
  125000    1.1942722   -2.7890589   -2.7890589   -1.6850802   0.16327048   -2.7890589    1.1039787   520346 
  126000    1.1963076   -2.7932915   -2.7932915   -1.6874312   0.14623169   -2.7932915    1.1058602   520346 
  127000    1.1940239   -2.7939715   -2.7939715   -1.6902223   0.16134882   -2.7939715    1.1037491   520346 
  128000    1.1947585   -2.7956953   -2.7956953   -1.6912671   0.13897679   -2.7956953    1.1044282   520346 
  129000    1.1927122   -2.7956974   -2.7956974   -1.6931608   0.12065123   -2.7956974    1.1025367   520346 
  130000    1.1943301   -2.7988521   -2.7988521   -1.6948199   0.13877541   -2.7988521    1.1040322   520346 
  131000    1.1933291    -2.799435    -2.799435   -1.6963281   0.15901606    -2.799435    1.1031069   520346 
  132000    1.1920929   -2.7998433   -2.7998433   -1.6978791   0.13456617   -2.7998433    1.1019642   520346 
  133000    1.1909414   -2.7992634   -2.7992634   -1.6983637   0.13141926   -2.7992634    1.1008997   520346 
  134000    1.1913823   -2.8011699   -2.8011699   -1.6998626   0.14893496   -2.8011699    1.1013073   520346 
  135000       1.1905   -2.8024956   -2.8024956   -1.7020039   0.12913398   -2.8024956    1.1004917   520346 
  136000     1.186574   -2.8008114   -2.8008114   -1.7039489   0.12324602   -2.8008114    1.0968625   520346 
  137000    1.1885369   -2.8049564   -2.8049564   -1.7062794   0.14225547   -2.8049564     1.098677   520346 
  138000     1.185399    -2.802854    -2.802854   -1.7070776   0.13721199    -2.802854    1.0957764   520346 
  139000    1.1869365    -2.805112    -2.805112   -1.7079144   0.14641424    -2.805112    1.0971976   520346 
  140000    1.1863532   -2.8063277   -2.8063277   -1.7096693   0.14063945   -2.8063277    1.0966584   520346 
  141000    1.1830577   -2.8044226   -2.8044226   -1.7108105   0.15035754   -2.8044226    1.0936121   520346 
  142000    1.1855393   -2.8079377   -2.8079377   -1.7120317   0.12967179   -2.8079377    1.0959061   520346 
  143000    1.1827248   -2.8079975   -2.8079975   -1.7146932   0.14032205   -2.8079975    1.0933043   520346 
  144000    1.1828367   -2.8099945   -2.8099945   -1.7165867   0.14796898   -2.8099945    1.0934078   520346 
  145000    1.1807082   -2.8091758   -2.8091758   -1.7177356   0.12774737   -2.8091758    1.0914402   520346 
  146000    1.1817949   -2.8115146   -2.8115146   -1.7190699    0.1388972   -2.8115146    1.0924447   520346 
  147000    1.1805226   -2.8113913   -2.8113913   -1.7201227   0.17150111   -2.8113913    1.0912687   520346 
  148000    1.1793507   -2.8110791   -2.8110791   -1.7208938   0.11627496   -2.8110791    1.0901853   520346 
  149000    1.1782543   -2.8123853   -2.8123853   -1.7232134    0.1421298   -2.8123853    1.0891719   520346 
  150000    1.1795513   -2.8156386   -2.8156386   -1.7252678   0.12606456   -2.8156386    1.0903708   520346 
  151000    1.1790242   -2.8164007   -2.8164007   -1.7265172   0.13741197   -2.8164007    1.0898835   520346 
  152000    1.1799137   -2.8188599   -2.8188599   -1.7281541   0.12861642   -2.8188599    1.0907057   520346 
  153000    1.1778525   -2.8185249   -2.8185249   -1.7297245   0.13804275   -2.8185249    1.0888004   520346 
  154000    1.1783324   -2.8201017   -2.8201017   -1.7308577   0.13287773   -2.8201017     1.089244   520346 
  155000    1.1796866   -2.8219241   -2.8219241   -1.7314283   0.13896456   -2.8219241    1.0904959   520346 
  156000    1.1770256    -2.820339    -2.820339   -1.7323029   0.13918811    -2.820339     1.088036   520346 
  157000    1.1772069   -2.8218608   -2.8218608   -1.7336572    0.1295401   -2.8218608    1.0882036   520346 
  158000    1.1783703   -2.8233871   -2.8233871   -1.7341081    0.1537753   -2.8233871    1.0892791   520346 
  159000    1.1760008   -2.8225287   -2.8225287     -1.73544    0.1460963   -2.8225287    1.0870888   520346 
  160000    1.1749932   -2.8229891   -2.8229891   -1.7368318   0.13007185   -2.8229891    1.0861573   520346 
  161000     1.176022   -2.8249112   -2.8249112   -1.7378029   0.15255197   -2.8249112    1.0871083   520346 
  162000     1.174507   -2.8246477   -2.8246477   -1.7389399   0.14085709   -2.8246477    1.0857078   520346 
  163000    1.1735259   -2.8247346   -2.8247346   -1.7399336   0.13896042   -2.8247346     1.084801   520346 
  164000    1.1748097   -2.8272795   -2.8272795   -1.7412919   0.12145632   -2.8272795    1.0859876   520346 
  165000    1.1740142   -2.8276565   -2.8276565   -1.7424042   0.13993292   -2.8276565    1.0852524   520346 
  166000    1.1751585   -2.8300564   -2.8300564   -1.7437463   0.12841083   -2.8300564    1.0863101   520346 
  167000    1.1731729   -2.8295409   -2.8295409   -1.7450663   0.13433507   -2.8295409    1.0844747   520346 
  168000    1.1716359   -2.8301535   -2.8301535   -1.7470997   0.10506774   -2.8301535    1.0830539   520346 
  169000    1.1716022   -2.8317596   -2.8317596    -1.748737   0.14421844   -2.8317596    1.0830226   520346 
  170000    1.1728916   -2.8342176   -2.8342176   -1.7500031   0.13281164   -2.8342176    1.0842146   520346 
  171000    1.1722115   -2.8348313   -2.8348313   -1.7512454   0.12489035   -2.8348313    1.0835859   520346 
  172000    1.1717378   -2.8357085   -2.8357085   -1.7525605   0.13261841   -2.8357085     1.083148   520346 
  173000    1.1707566   -2.8344396   -2.8344396   -1.7521985   0.13357125   -2.8344396     1.082241   520346 
  174000    1.1695697   -2.8351648   -2.8351648    -1.754021   0.15828145   -2.8351648    1.0811438   520346 
  175000    1.1682224   -2.8354286   -2.8354286   -1.7555302   0.13704687   -2.8354286    1.0798984   520346 
  176000      1.16872   -2.8372609   -2.8372609   -1.7569025   0.14749571   -2.8372609    1.0803583   520346 
  177000    1.1702741   -2.8394555   -2.8394555   -1.7576605   0.13505672   -2.8394555    1.0817949   520346 
  178000    1.1677268   -2.8391033   -2.8391033    -1.759663   0.13982179   -2.8391033    1.0794403   520346 
  179000    1.1694951   -2.8419857   -2.8419857   -1.7609109   0.14270993   -2.8419857    1.0810748   520346 
  180000    1.1644813   -2.8390392   -2.8390392   -1.7625991   0.12552946   -2.8390392    1.0764401   520346 
  181000    1.1661074   -2.8413968   -2.8413968   -1.7634535   0.14739719   -2.8413968    1.0779433   520346 
  182000     1.166188   -2.8423621   -2.8423621   -1.7643443    0.1335247   -2.8423621    1.0780179   520346 
  183000    1.1648988   -2.8423095   -2.8423095   -1.7654834   0.13119425   -2.8423095    1.0768261   520346 
  184000    1.1653489   -2.8441113   -2.8441113   -1.7668692   0.13377299   -2.8441113    1.0772421   520346 
  185000    1.1657878   -2.8446352   -2.8446352   -1.7669873   0.12891294   -2.8446352    1.0776479   520346 
  186000    1.1650093   -2.8460424   -2.8460424   -1.7691141   0.14028452   -2.8460424    1.0769283   520346 
  187000    1.1631016   -2.8465153   -2.8465153   -1.7713505   0.12175817   -2.8465153    1.0751648   520346 
  188000    1.1632647   -2.8478132   -2.8478132   -1.7724977   0.12410859   -2.8478132    1.0753156   520346 
  189000    1.1623447   -2.8477388   -2.8477388   -1.7732736   0.12429298   -2.8477388    1.0744651   520346 
  190000    1.1613646   -2.8481082   -2.8481082    -1.774549   0.13187054   -2.8481082    1.0735591   520346 
  191000    1.1597675   -2.8478911   -2.8478911   -1.7758084   0.12762404   -2.8478911    1.0720827   520346 
  192000    1.1592102   -2.8480643   -2.8480643   -1.7764967   0.14059951   -2.8480643    1.0715676   520346 
  193000    1.1593159   -2.8499819   -2.8499819   -1.7783167   0.14384102   -2.8499819    1.0716653   520346 
  194000    1.1597381   -2.8518027   -2.8518027   -1.7797472   0.12652723   -2.8518027    1.0720555   520346 
  195000     1.157935   -2.8512866   -2.8512866   -1.7808978    0.1161146   -2.8512866    1.0703888   520346 
  196000    1.1603609   -2.8549616   -2.8549616   -1.7823304   0.11461701   -2.8549616    1.0726312   520346 
  197000    1.1563712   -2.8528037   -2.8528037   -1.7838605   0.11575692   -2.8528037    1.0689432   520346 
  198000    1.1583761   -2.8563077   -2.8563077   -1.7855111   0.11627082   -2.8563077    1.0707966   520346 
  199000    1.1567269     -2.85591     -2.85591    -1.786638   0.13273902     -2.85591     1.069272   520346 
  200000    1.1569472   -2.8567686   -2.8567686   -1.7872929   0.12040545   -2.8567686    1.0694757   520346 
  201000    1.1575191   -2.8575526   -2.8575526   -1.7875483   0.13868081   -2.8575526    1.0700043   520346 
  202000     1.155641   -2.8570921   -2.8570921   -1.7888238   0.15459646   -2.8570921    1.0682683   520346 
  203000    1.1523544   -2.8553407   -2.8553407   -1.7901106   0.11701786   -2.8553407    1.0652301   520346 
  204000    1.1545588   -2.8579395   -2.8579395   -1.7906717   0.12829324   -2.8579395    1.0672678   520346 
  205000    1.1526124   -2.8572133   -2.8572133   -1.7917448   0.11528969   -2.8572133    1.0654686   520346 
  206000     1.152803   -2.8578023   -2.8578023   -1.7921575   0.12127123   -2.8578023    1.0656448   520346 
  207000    1.1515592   -2.8578065   -2.8578065   -1.7933115   0.12567177   -2.8578065     1.064495   520346 
  208000     1.149806   -2.8571452   -2.8571452   -1.7942709   0.10917576   -2.8571452    1.0628744   520346 
  209000    1.1510391   -2.8589107   -2.8589107   -1.7948965   0.12371233   -2.8589107    1.0640142   520346 
  210000    1.1514641   -2.8605897   -2.8605897   -1.7961825   0.13900077   -2.8605897    1.0644071   520346 
  211000    1.1504011   -2.8604279   -2.8604279   -1.7970034   0.10050744   -2.8604279    1.0634245   520346 
  212000    1.1521819   -2.8634166   -2.8634166    -1.798346   0.11704961   -2.8634166    1.0650706   520346 
  213000    1.1517922   -2.8651317   -2.8651317   -1.8004213   0.11574959   -2.8651317    1.0647104   520346 
  214000    1.1479777   -2.8633324   -2.8633324   -1.8021481   0.13442122   -2.8633324    1.0611843   520346 
  215000    1.1492878   -2.8656988   -2.8656988   -1.8033035   0.11731372   -2.8656988    1.0623953   520346 
  216000    1.1504164   -2.8675276   -2.8675276   -1.8040889   0.11020851   -2.8675276    1.0634387   520346 
  217000    1.1513913   -2.8692291   -2.8692291   -1.8048893   0.12866176   -2.8692291    1.0643398   520346 
  218000    1.1520025   -2.8697017   -2.8697017   -1.8047968   0.13048479   -2.8697017    1.0649049   520346 
  219000    1.1489836   -2.8689248   -2.8689248   -1.8068106   0.13583253   -2.8689248    1.0621142   520346 
  220000    1.1486334    -2.869259    -2.869259   -1.8074686   0.13851143    -2.869259    1.0617904   520346 
  221000    1.1484325   -2.8701722   -2.8701722   -1.8085674   0.12097903   -2.8701722    1.0616048   520346 
  222000    1.1513053   -2.8735903   -2.8735903     -1.80933   0.11066632   -2.8735903    1.0642603   520346 
  223000    1.1474572   -2.8712856   -2.8712856   -1.8105824   0.11670005   -2.8712856    1.0607032   520346 
  224000    1.1469291      -2.8719      -2.8719    -1.811685   0.11506395      -2.8719     1.060215   520346 
  225000    1.1481348   -2.8743362   -2.8743362   -1.8130066   0.10918564   -2.8743362    1.0613296   520346 
  226000    1.1445986   -2.8709959   -2.8709959   -1.8129352   0.12139383   -2.8709959    1.0580607   520346 
  227000    1.1449188   -2.8736832   -2.8736832   -1.8153265   0.11321974   -2.8736832    1.0583567   520346 
  228000     1.144898   -2.8748642   -2.8748642   -1.8165268   0.13372776   -2.8748642    1.0583375   520346 
  229000    1.1430901   -2.8736384   -2.8736384   -1.8169721   0.13270957   -2.8736384    1.0566662   520346 
  230000    1.1441165   -2.8761081   -2.8761081   -1.8184931   0.13034859   -2.8761081     1.057615   520346 
  231000    1.1433479   -2.8772732   -2.8772732   -1.8203686   0.12009926   -2.8772732    1.0569046   520346 
  232000    1.1444123   -2.8789122   -2.8789122   -1.8210237   0.12775476   -2.8789122    1.0578885   520346 
  233000    1.1442161   -2.8791368   -2.8791368   -1.8214297    0.1246978   -2.8791368    1.0577071   520346 
  234000    1.1442812   -2.8803578   -2.8803578   -1.8225905  0.099112257   -2.8803578    1.0577673   520346 
  235000    1.1430983   -2.8802158   -2.8802158   -1.8235419  0.099574185   -2.8802158    1.0566739   520346 
  236000    1.1408173   -2.8779693   -2.8779693    -1.823404   0.11668371   -2.8779693    1.0545653   520346 
  237000    1.1415588   -2.8803308   -2.8803308   -1.8250801  0.093052082   -2.8803308    1.0552507   520346 
  238000    1.1434841   -2.8833323   -2.8833323   -1.8263018    0.1221309   -2.8833323    1.0570305   520346 
  239000     1.142089   -2.8829556   -2.8829556   -1.8272148   0.11207191   -2.8829556    1.0557408   520346 
  240000    1.1399294   -2.8817482   -2.8817482   -1.8280037   0.11661286   -2.8817482    1.0537445   520346 
  241000    1.1417178   -2.8847438   -2.8847438   -1.8293461   0.11337919   -2.8847438    1.0553977   520346 
  242000    1.1452085   -2.8887346   -2.8887346   -1.8301101   0.13301087   -2.8887346    1.0586245   520346 
  243000    1.1408071   -2.8870538   -2.8870538   -1.8324979   0.11765954   -2.8870538    1.0545558   520346 
  244000    1.1396237   -2.8853156   -2.8853156   -1.8318537   0.12458844   -2.8853156    1.0534619   520346 
  245000    1.1397747   -2.8863653   -2.8863653   -1.8327638    0.1223239   -2.8863653    1.0536015   520346 
  246000    1.1404511   -2.8888137   -2.8888137    -1.834587   0.11413346   -2.8888137    1.0542267   520346 
  247000    1.1380631   -2.8874373   -2.8874373    -1.835418    0.1348731   -2.8874373    1.0520193   520346 
  248000    1.1376125   -2.8881157   -2.8881157   -1.8365129    0.1234867   -2.8881157    1.0516028   520346 
  249000    1.1395287   -2.8911992   -2.8911992   -1.8378251   0.11118588   -2.8911992    1.0533741   520346 
  250000    1.1377945   -2.8902987   -2.8902987   -1.8385277   0.10143234   -2.8902987    1.0517711   520346 
  251000    1.1355632   -2.8892291   -2.8892291   -1.8395207   0.12225581   -2.8892291    1.0497084   520346 
  252000    1.1350088   -2.8890726   -2.8890726   -1.8398766   0.10526034   -2.8890726    1.0491959   520346 
  253000    1.1355317   -2.8906435   -2.8906435   -1.8409642   0.10165223   -2.8906435    1.0496793   520346 
  254000    1.1345432   -2.8910979   -2.8910979   -1.8423324  0.095487578   -2.8910979    1.0487655   520346 
  255000     1.135913   -2.8928982   -2.8928982   -1.8428665   0.10407757   -2.8928982    1.0500317   520346 
  256000    1.1355949   -2.8933759   -2.8933759   -1.8436381   0.09964555   -2.8933759    1.0497378   520346 
  257000     1.136933   -2.8958493   -2.8958493   -1.8448747    0.1295239   -2.8958493    1.0509746   520346 
  258000    1.1347971   -2.8949586   -2.8949586   -1.8459584   0.10358012   -2.8949586    1.0490002   520346 
  259000    1.1334558   -2.8937754   -2.8937754    -1.846015   0.12737047   -2.8937754    1.0477604   520346 
  260000     1.134901   -2.8962642   -2.8962642   -1.8471679   0.11880316   -2.8962642    1.0490963   520346 
  261000    1.1335833   -2.8953768   -2.8953768   -1.8474986   0.10481769   -2.8953768    1.0478782   520346 
  262000    1.1334243   -2.8956857   -2.8956857   -1.8479544   0.11507381   -2.8956857    1.0477313   520346 
  263000    1.1349203     -2.89916     -2.89916   -1.8500459  0.089047769     -2.89916    1.0491141   520346 
  264000    1.1323535   -2.8982291   -2.8982291   -1.8514878    0.1225286   -2.8982291    1.0467414   520346 
  265000    1.1350958   -2.9023941   -2.9023941   -1.8531178   0.10681917   -2.9023941    1.0492764   520346 
  266000    1.1333317   -2.9014111   -2.9014111   -1.8537654    0.1118091   -2.9014111    1.0476457   520346 
  267000    1.1313959   -2.9001008   -2.9001008   -1.8542447   0.10816167   -2.9001008    1.0458562   520346 
  268000    1.1311487   -2.9006672   -2.9006672   -1.8550395   0.11131185   -2.9006672    1.0456277   520346 
  269000    1.1321473   -2.9017364   -2.9017364   -1.8551857   0.11828869   -2.9017364    1.0465508   520346 
  270000    1.1317176   -2.9013627   -2.9013627   -1.8552092   0.12996895   -2.9013627    1.0461536   520346 
  271000    1.1313467   -2.9024414   -2.9024414   -1.8566308   0.12434814   -2.9024414    1.0458107   520346 
  272000    1.1311871   -2.9036225   -2.9036225   -1.8579593  0.096063733   -2.9036225    1.0456632   520346 
  273000    1.1309915   -2.9043036   -2.9043036   -1.8588212  0.095596874   -2.9043036    1.0454823   520346 
  274000    1.1304797   -2.9047033   -2.9047033    -1.859694   0.11450707   -2.9047033    1.0450093   520346 
  275000    1.1299853   -2.9050899   -2.9050899   -1.8605377    0.1289756   -2.9050899    1.0445522   520346 
  276000    1.1292148   -2.9048832   -2.9048832   -1.8610432   0.11059306   -2.9048832      1.04384   520346 
  277000    1.1297532    -2.907119    -2.907119   -1.8627814   0.11546195    -2.907119    1.0443377   520346 
  278000    1.1293745   -2.9075786   -2.9075786    -1.863591   0.13042617   -2.9075786    1.0439876   520346 
  279000    1.1310191   -2.9093036   -2.9093036   -1.8637956   0.11963781   -2.9093036    1.0455079   520346 
  280000    1.1263788    -2.906637    -2.906637   -1.8654186   0.12672698    -2.906637    1.0412184   520346 
  281000    1.1286461   -2.9098606   -2.9098606   -1.8665463   0.11515445   -2.9098606    1.0433143   520346 
  282000    1.1281296   -2.9091466   -2.9091466   -1.8663097   0.14578283   -2.9091466    1.0428369   520346 
  283000    1.1288138   -2.9107486   -2.9107486   -1.8672792  0.095935579   -2.9107486    1.0434693   520346 
  284000    1.1257657    -2.908597    -2.908597   -1.8679453   0.11900005    -2.908597    1.0406517   520346 
  285000    1.1265628   -2.9093207   -2.9093207   -1.8679322  0.098760437   -2.9093207    1.0413885   520346 
  286000     1.126016   -2.9096898   -2.9096898   -1.8688067   0.11236895   -2.9096898    1.0408831   520346 
  287000    1.1259144   -2.9104844   -2.9104844   -1.8696953  0.093934499   -2.9104844    1.0407891   520346 
  288000    1.1265494   -2.9114572   -2.9114572    -1.870081   0.11509249   -2.9114572    1.0413761   520346 
  289000    1.1241079   -2.9108243   -2.9108243   -1.8717051  0.091218228   -2.9108243    1.0391192   520346 
  290000     1.122955   -2.9100979   -2.9100979   -1.8720444  0.093806745   -2.9100979    1.0380535   520346 
  291000    1.1283124   -2.9154981   -2.9154981   -1.8724922   0.13639197   -2.9154981    1.0430059   520346 
  292000    1.1243239   -2.9135676   -2.9135676   -1.8742488   0.11245758   -2.9135676    1.0393189   520346 
  293000    1.1224955   -2.9114467   -2.9114467    -1.873818   0.11018534   -2.9114467    1.0376287   520346 
  294000    1.1235433    -2.914006    -2.914006   -1.8754087   0.10990637    -2.914006    1.0385973   520346 
  295000    1.1211241   -2.9133295   -2.9133295   -1.8769685  0.095701655   -2.9133295     1.036361   520346 
  296000    1.1235513   -2.9161069   -2.9161069   -1.8775022  0.089875239   -2.9161069    1.0386047   520346 
  297000    1.1215871   -2.9156064   -2.9156064   -1.8788173  0.094910345   -2.9156064     1.036789   520346 
  298000    1.1226075   -2.9169316   -2.9169316   -1.8791994   0.12599827   -2.9169316    1.0377322   520346 
  299000    1.1217563    -2.916584    -2.916584   -1.8796386   0.11425106    -2.916584    1.0369454   520346 
  300000    1.1223109   -2.9174096   -2.9174096   -1.8799515   0.11556654   -2.9174096    1.0374581   520346 
  301000    1.1215907   -2.9177696   -2.9177696   -1.8809773  0.098914022   -2.9177696    1.0367924   520346 
  302000    1.1222152   -2.9187299   -2.9187299   -1.8813604   0.10230969   -2.9187299    1.0373696   520346 
  303000    1.1217981   -2.9184639   -2.9184639   -1.8814799   0.10709863   -2.9184639     1.036984   520346 
  304000    1.1217058    -2.920052    -2.920052   -1.8831533   0.11123458    -2.920052    1.0368987   520346 
  305000    1.1191846   -2.9184332   -2.9184332   -1.8838652   0.11882635   -2.9184332    1.0345681   520346 
  306000    1.1199096   -2.9183855   -2.9183855   -1.8831472   0.10252951   -2.9183855    1.0352384   520346 
  307000    1.1207283   -2.9184079   -2.9184079   -1.8824128  0.086966118   -2.9184079    1.0359951   520346 
  308000    1.1201002   -2.9194039   -2.9194039   -1.8839894   0.11612877   -2.9194039    1.0354145   520346 
  309000    1.1191166   -2.9199413   -2.9199413   -1.8854361   0.11416676   -2.9199413    1.0345053   520346 
  310000    1.1200647   -2.9219808   -2.9219808   -1.8865991   0.11564103   -2.9219808    1.0353817   520346 
  311000    1.1176959   -2.9208425   -2.9208425   -1.8876505    0.1039815   -2.9208425    1.0331919   520346 
  312000    1.1186367   -2.9223835   -2.9223835   -1.8883218   0.10208439   -2.9223835    1.0340617   520346 
  313000    1.1189686   -2.9234479   -2.9234479   -1.8890795  0.089806739   -2.9234479    1.0343685   520346 
  314000    1.1195381   -2.9244525   -2.9244525   -1.8895575  0.087651725   -2.9244525    1.0348949   520346 
  315000    1.1165883   -2.9228956   -2.9228956   -1.8907275  0.074164185   -2.9228956    1.0321681   520346 
  316000    1.1203719   -2.9266751   -2.9266751   -1.8910094   0.11352732   -2.9266751    1.0356657   520346 
  317000    1.1177783    -2.925769    -2.925769   -1.8925009  0.097711814    -2.925769    1.0332681   520346 
  318000    1.1172321   -2.9252982   -2.9252982   -1.8925349   0.10939278   -2.9252982    1.0327633   520346 
  319000    1.1178156   -2.9272245   -2.9272245   -1.8939219   0.11619658   -2.9272245    1.0333026   520346 
  320000     1.116696    -2.927461    -2.927461   -1.8951933   0.10314986    -2.927461    1.0322677   520346 
  321000    1.1155292   -2.9270339   -2.9270339   -1.8958448   0.10597343   -2.9270339    1.0311891   520346 
  322000    1.1148302   -2.9269518   -2.9269518   -1.8964088  0.089492962   -2.9269518     1.030543   520346 
  323000    1.1149617   -2.9279506   -2.9279506   -1.8972861   0.10941234   -2.9279506    1.0306645   520346 
  324000     1.117578   -2.9306145   -2.9306145   -1.8975314   0.10359026   -2.9306145     1.033083   520346 
  325000    1.1152575   -2.9300063   -2.9300063   -1.8990683  0.093195829   -2.9300063    1.0309379   520346 
  326000     1.117703   -2.9325755   -2.9325755   -1.8993769   0.12456063   -2.9325755    1.0331986   520346 
  327000    1.1163685   -2.9327123   -2.9327123   -1.9007474   0.10742955   -2.9327123    1.0319649   520346 
  328000    1.1123505   -2.9293503   -2.9293503   -1.9010996   0.10060188   -2.9293503    1.0282507   520346 
  329000    1.1153468   -2.9319902   -2.9319902   -1.9009697   0.12534451   -2.9319902    1.0310205   520346 
  330000    1.1133835   -2.9308403   -2.9308403   -1.9016347  0.096147147   -2.9308403    1.0292057   520346 
  331000    1.1154152   -2.9331294   -2.9331294   -1.9020457   0.11771256   -2.9331294    1.0310837   520346 
  332000    1.1152651   -2.9341829   -2.9341829   -1.9032379  0.090046768   -2.9341829     1.030945   520346 
  333000    1.1114535   -2.9308602   -2.9308602   -1.9034387  0.095846098   -2.9308602    1.0274215   520346 
  334000    1.1127672   -2.9327384   -2.9327384   -1.9041025  0.097130142   -2.9327384    1.0286359   520346 
  335000    1.1137557   -2.9344076   -2.9344076   -1.9048579  0.099553421   -2.9344076    1.0295497   520346 
  336000    1.1153952   -2.9372732   -2.9372732    -1.906208   0.10998455   -2.9372732    1.0310652   520346 
  337000    1.1118845   -2.9351897   -2.9351897   -1.9073698    0.1162906   -2.9351897    1.0278199   520346 
  338000    1.1139386   -2.9375471   -2.9375471   -1.9078283   0.11383065   -2.9375471    1.0297188   520346 
  339000    1.1136368   -2.9385815   -2.9385815   -1.9091418  0.098371999   -2.9385815    1.0294398   520346 
  340000    1.1148574   -2.9402795   -2.9402795   -1.9097114   0.11220821   -2.9402795    1.0305681   520346 
  341000     1.111672   -2.9384003   -2.9384003   -1.9107768    0.1013564   -2.9384003    1.0276235   520346 
  342000     1.107078   -2.9359332   -2.9359332   -1.9125563   0.10193481   -2.9359332    1.0233769   520346 
  343000    1.1108753   -2.9391585   -2.9391585   -1.9122714  0.092523664   -2.9391585    1.0268871   520346 
  344000    1.1117824   -2.9412259   -2.9412259   -1.9135004  0.081777342   -2.9412259    1.0277255   520346 
  345000    1.1087182   -2.9394071   -2.9394071   -1.9145141     0.114395   -2.9394071    1.0248931   520346 
  346000    1.1086045   -2.9404891   -2.9404891   -1.9157012  0.094536878   -2.9404891    1.0247879   520346 
  347000    1.1084532    -2.940105    -2.940105   -1.9154569  0.099350253    -2.940105    1.0246481   520346 
  348000    1.1100534   -2.9424513   -2.9424513    -1.916324   0.11813337   -2.9424513    1.0261273   520346 
  349000    1.1086984   -2.9427661   -2.9427661   -1.9178914  0.095121473   -2.9427661    1.0248747   520346 
  350000    1.1065888   -2.9414108   -2.9414108   -1.9184861  0.087305122   -2.9414108    1.0229246   520346 
  351000    1.1091712    -2.944032    -2.944032   -1.9187201  0.097365868    -2.944032    1.0253118   520346 
  352000    1.1061486   -2.9419303   -2.9419303   -1.9194126  0.089194058   -2.9419303    1.0225177   520346 
  353000    1.1073799   -2.9441185   -2.9441185   -1.9204626   0.11578298   -2.9441185    1.0236559   520346 
  354000    1.1074584   -2.9456661   -2.9456661   -1.9219376   0.11029644   -2.9456661    1.0237285   520346 
  355000    1.1077413   -2.9461675   -2.9461675   -1.9221775  0.093689384   -2.9461675      1.02399   520346 
  356000    1.1093306   -2.9482606   -2.9482606   -1.9228014   0.11057788   -2.9482606    1.0254592   520346 
  357000    1.1082266   -2.9472542   -2.9472542   -1.9228156  0.094382898   -2.9472542    1.0244386   520346 
  358000    1.1060773   -2.9463539   -2.9463539   -1.9239021   0.10739869   -2.9463539    1.0224518   520346 
  359000    1.1060484   -2.9465369   -2.9465369   -1.9241118   0.10272146   -2.9465369    1.0224251   520346 
  360000     1.106209   -2.9477942   -2.9477942   -1.9252207  0.082701375   -2.9477942    1.0225735   520346 
  361000    1.1078502    -2.949568    -2.949568   -1.9254774  0.089617938    -2.949568    1.0240907   520346 
  362000    1.1070422   -2.9501695   -2.9501695   -1.9268257   0.11773811   -2.9501695    1.0233438   520346 
  363000    1.1051065   -2.9489182   -2.9489182   -1.9273638   0.10105463   -2.9489182    1.0215544   520346 
  364000    1.1055116   -2.9489525   -2.9489525   -1.9270236  0.098118495   -2.9489525    1.0219289   520346 
  365000    1.1066627   -2.9515496   -2.9515496   -1.9285567   0.11580005   -2.9515496     1.022993   520346 
  366000    1.1065437   -2.9516644   -2.9516644   -1.9287815  0.097506931   -2.9516644    1.0228829   520346 
  367000    1.1048111   -2.9514401   -2.9514401   -1.9301588    0.0986233   -2.9514401    1.0212814   520346 
  368000    1.1044091   -2.9516802   -2.9516802   -1.9307705   0.11261609   -2.9516802    1.0209097   520346 
  369000    1.1047796   -2.9527504   -2.9527504   -1.9314981   0.10547242   -2.9527504    1.0212522   520346 
  370000    1.1021552   -2.9508296   -2.9508296   -1.9320033   0.12423733   -2.9508296    1.0188263   520346 
  371000    1.1031467    -2.953168    -2.953168   -1.9334252    0.1042387    -2.953168    1.0197428   520346 
  372000    1.1048196   -2.9554396   -2.9554396   -1.9341503   0.10319028   -2.9554396    1.0212892   520346 
  373000    1.1029518   -2.9542913   -2.9542913   -1.9347287   0.10380983   -2.9542913    1.0195626   520346 
  374000    1.1062362   -2.9578473   -2.9578473   -1.9352487   0.10966854   -2.9578473    1.0225987   520346 
  375000    1.1034154   -2.9557736   -2.9557736   -1.9357825   0.10486402   -2.9557736    1.0199911   520346 
  376000    1.1010734   -2.9541136   -2.9541136   -1.9362874   0.09275923   -2.9541136    1.0178262   520346 
  377000     1.103101   -2.9568802   -2.9568802   -1.9371797   0.12373716   -2.9568802    1.0197005   520346 
  378000    1.1045003   -2.9587987   -2.9587987   -1.9378047   0.10915465   -2.9587987     1.020994   520346 
  379000    1.0993972   -2.9540871   -2.9540871   -1.9378104  0.083867468   -2.9540871    1.0162767   520346 
  380000    1.1023457   -2.9579609   -2.9579609   -1.9389585  0.098684463   -2.9579609    1.0190024   520346 
  381000    1.1018551   -2.9571793   -2.9571793   -1.9386305   0.11537022   -2.9571793    1.0185488   520346 
  382000    1.1012633   -2.9569026   -2.9569026   -1.9389008    0.1204972   -2.9569026    1.0180018   520346 
  383000    1.1014592   -2.9582302   -2.9582302   -1.9400474   0.11308625   -2.9582302    1.0181829   520346 
  384000    1.1030737   -2.9609604   -2.9609604   -1.9412851   0.10888417   -2.9609604    1.0196753   520346 
  385000    1.1038232   -2.9625151   -2.9625151    -1.942147   0.10990461   -2.9625151    1.0203681   520346 
  386000    1.1005304   -2.9607616   -2.9607616   -1.9434373  0.094146125   -2.9607616    1.0173243   520346 
  387000    1.1011762   -2.9618607   -2.9618607   -1.9439394   0.10061614   -2.9618607    1.0179213   520346 
  388000    1.1001898   -2.9614058   -2.9614058   -1.9443964   0.10657474   -2.9614058    1.0170094   520346 
  389000    1.1015014   -2.9634034   -2.9634034   -1.9451815  0.092806373   -2.9634034    1.0182219   520346 
  390000    1.1014827   -2.9643919   -2.9643919   -1.9461873   0.11215641   -2.9643919    1.0182046   520346 
  391000    1.0985462   -2.9621392   -2.9621392   -1.9466491  0.097312611   -2.9621392    1.0154901   520346 
  392000    1.1014534   -2.9661003   -2.9661003   -1.9479228   0.11650929   -2.9661003    1.0181775   520346 
  393000    1.0977767   -2.9634117   -2.9634117   -1.9486329  0.099092955   -2.9634117    1.0147788   520346 
  394000    1.0989583   -2.9648947   -2.9648947   -1.9490237  0.090295577   -2.9648947    1.0158711   520346 
  395000     1.099981   -2.9667605   -2.9667605   -1.9499441  0.096187122   -2.9667605    1.0168164   520346 
  396000    1.0999368   -2.9672206   -2.9672206   -1.9504451   0.10202424   -2.9672206    1.0167755   520346 
  397000    1.0977676   -2.9660631   -2.9660631   -1.9512927   0.10160383   -2.9660631    1.0147704   520346 
  398000     1.098867   -2.9673719   -2.9673719   -1.9515852  0.069047527   -2.9673719    1.0157866   520346 
  399000     1.098126   -2.9676089   -2.9676089   -1.9525073   0.10045384   -2.9676089    1.0151017   520346 
  400000    1.0998611   -2.9701137   -2.9701137   -1.9534081  0.085365778   -2.9701137    1.0167056   520346 
  401000    1.0987857   -2.9698486   -2.9698486   -1.9541371  0.089876089   -2.9698486    1.0157115   520346 
  402000    1.0989989   -2.9704657   -2.9704657   -1.9545571   0.11066823   -2.9704657    1.0159086   520346 
  403000    1.0958398    -2.968262    -2.968262   -1.9552736    0.1018786    -2.968262    1.0129884   520346 
  404000    1.0975309   -2.9705351   -2.9705351   -1.9559835  0.098041328   -2.9705351    1.0145516   520346 
  405000    1.0983812    -2.972754    -2.972754   -1.9574164   0.11285335    -2.972754    1.0153376   520346 
  406000    1.0977893   -2.9719183   -2.9719183   -1.9571279   0.10581583   -2.9719183    1.0147904   520346 
  407000    1.0979804   -2.9725481   -2.9725481    -1.957581  0.094080403   -2.9725481    1.0149671   520346 
  408000    1.0978191   -2.9719591   -2.9719591   -1.9571411  0.084220075   -2.9719591     1.014818   520346 
  409000    1.0986299   -2.9731858   -2.9731858   -1.9576182  0.084111731   -2.9731858    1.0155675   520346 
  410000    1.0943215   -2.9708369   -2.9708369   -1.9592521   0.11303721   -2.9708369    1.0115848   520346 
  411000     1.093991   -2.9706615   -2.9706615   -1.9593822  0.086951258   -2.9706615    1.0112793   520346 
  412000    1.0943411   -2.9712003   -2.9712003   -1.9595974   0.11391372   -2.9712003    1.0116029   520346 
  413000    1.0951682   -2.9735374   -2.9735374   -1.9611698  0.078873619   -2.9735374    1.0123675   520346 
  414000    1.0922658   -2.9711108   -2.9711108   -1.9614263  0.083315471   -2.9711108    1.0096845   520346 
  415000    1.0939532   -2.9735694   -2.9735694    -1.962325  0.086336673   -2.9735694    1.0112444   520346 
  416000    1.0942033   -2.9738373   -2.9738373   -1.9623617  0.094851863   -2.9738373    1.0114756   520346 
  417000    1.0953143   -2.9753189   -2.9753189   -1.9628164  0.094823984   -2.9753189    1.0125025   520346 
  418000    1.0950977   -2.9759171   -2.9759171   -1.9636148  0.095633822   -2.9759171    1.0123023   520346 
  419000     1.094383   -2.9753284   -2.9753284   -1.9636867   0.10513133   -2.9753284    1.0116417   520346 
  420000     1.094718   -2.9773218   -2.9773218   -1.9653704  0.087323235   -2.9773218    1.0119514   520346 
  421000     1.092819   -2.9762854   -2.9762854   -1.9660895  0.085604572   -2.9762854    1.0101959   520346 
  422000     1.092097   -2.9767192   -2.9767192   -1.9671907    0.1047274   -2.9767192    1.0095285   520346 
  423000    1.0929098   -2.9778689   -2.9778689   -1.9675891   0.10477446   -2.9778689    1.0102798   520346 
  424000    1.0918834   -2.9776601   -2.9776601    -1.968329  0.093918298   -2.9776601    1.0093311   520346 
  425000    1.0918967   -2.9780803   -2.9780803    -1.968737  0.098208741   -2.9780803    1.0093433   520346 
  426000    1.0924221    -2.978688    -2.978688   -1.9688589  0.080973836    -2.978688    1.0098291   520346 
  427000    1.0939875   -2.9804479   -2.9804479   -1.9691719  0.075123883   -2.9804479     1.011276   520346 
  428000    1.0926039   -2.9793387   -2.9793387   -1.9693416  0.083369018   -2.9793387    1.0099971   520346 
  429000    1.0923208   -2.9802007   -2.9802007   -1.9704653  0.095234486   -2.9802007    1.0097354   520346 
  430000    1.0914535   -2.9789376   -2.9789376   -1.9700039  0.089037624   -2.9789376    1.0089336   520346 
  431000    1.0907538   -2.9787042   -2.9787042   -1.9704174  0.076451209   -2.9787042    1.0082868   520346 
  432000    1.0909321    -2.980143    -2.980143   -1.9716913  0.082486472    -2.980143    1.0084517   520346 
  433000    1.0917088   -2.9807394   -2.9807394   -1.9715697  0.092620645   -2.9807394    1.0091696   520346 
  434000    1.0911033   -2.9814797   -2.9814797   -1.9728698   0.10628089   -2.9814797    1.0086099   520346 
  435000    1.0898115   -2.9805979   -2.9805979   -1.9731821   0.12602789   -2.9805979    1.0074158   520346 
  436000    1.0926083   -2.9841967   -2.9841967   -1.9741956   0.08848566   -2.9841967    1.0100011   520346 
  437000    1.0914207   -2.9832081   -2.9832081   -1.9743047   0.09177482   -2.9832081    1.0089034   520346 
  438000    1.0916797   -2.9835038   -2.9835038   -1.9743611  0.096930126   -2.9835038    1.0091427   520346 
  439000      1.09038   -2.9824957   -2.9824957   -1.9745544  0.088391619   -2.9824957    1.0079413   520346 
  440000    1.0886138   -2.9818622   -2.9818622   -1.9755535  0.091462132   -2.9818622    1.0063087   520346 
  441000    1.0911854   -2.9845847   -2.9845847   -1.9758989  0.092471531   -2.9845847    1.0086858   520346 
  442000    1.0922461   -2.9862263   -2.9862263   -1.9765599    0.1033626   -2.9862263    1.0096664   520346 
  443000    1.0891154    -2.984477    -2.984477   -1.9777047  0.086059142    -2.984477    1.0067723   520346 
  444000     1.090894   -2.9863589   -2.9863589   -1.9779424   0.09822415   -2.9863589    1.0084165   520346 
  445000    1.0889766    -2.984807    -2.984807   -1.9781629  0.071058727    -2.984807    1.0066441   520346 
  446000    1.0893518   -2.9868992   -2.9868992   -1.9799083  0.079463233   -2.9868992    1.0069909   520346 
  447000    1.0903416   -2.9873723   -2.9873723   -1.9794665  0.082055483   -2.9873723    1.0079058   520346 
  448000    1.0897819    -2.987305    -2.987305   -1.9799166   0.10318353    -2.987305    1.0073884   520346 
  449000    1.0909011   -2.9894137   -2.9894137   -1.9809906  0.097238156   -2.9894137    1.0084231   520346 
  450000    1.0869721   -2.9871697   -2.9871697   -1.9823787  0.091543077   -2.9871697    1.0047911   520346 
  451000      1.08927   -2.9892342   -2.9892342    -1.982319  0.088943408   -2.9892342    1.0069153   520346 
  452000    1.0884151   -2.9889588   -2.9889588   -1.9828338  0.099482246   -2.9889588     1.006125   520346 
  453000    1.0905154   -2.9919019   -2.9919019   -1.9838354   0.09629585   -2.9919019    1.0080665   520346 
  454000    1.0867815   -2.9894538   -2.9894538   -1.9848389  0.091206888   -2.9894538    1.0046149   520346 
  455000    1.0871009   -2.9901066   -2.9901066   -1.9851965  0.085757643   -2.9901066    1.0049101   520346 
  456000    1.0904343   -2.9915804   -2.9915804   -1.9835889   0.11267153   -2.9915804    1.0079915   520346 
  457000    1.0876465   -2.9890204   -2.9890204   -1.9836059  0.087250209   -2.9890204    1.0054144   520346 
  458000    1.0869398   -2.9890539   -2.9890539   -1.9842927    0.1090649   -2.9890539    1.0047612   520346 
  459000    1.0886963   -2.9917578   -2.9917578    -1.985373    0.1023683   -2.9917578    1.0063849   520346 
  460000    1.0877592   -2.9910085   -2.9910085   -1.9854899  0.092447751   -2.9910085    1.0055186   520346 
  461000    1.0861027   -2.9893585   -2.9893585   -1.9853712  0.080469303   -2.9893585    1.0039874   520346 
  462000    1.0888643   -2.9925471   -2.9925471   -1.9860069   0.10102267   -2.9925471    1.0065402   520346 
  463000    1.0850797   -2.9900959   -2.9900959   -1.9870542   0.08693516   -2.9900959    1.0030417   520346 
  464000     1.087034    -2.992979    -2.992979   -1.9881307  0.096370547    -2.992979    1.0048483   520346 
  465000    1.0845637   -2.9910489   -2.9910489   -1.9884842  0.097584677   -2.9910489    1.0025647   520346 
  466000    1.0859072   -2.9926908   -2.9926908   -1.9888841   0.10139174   -2.9926908    1.0038067   520346 
  467000    1.0885934   -2.9954811   -2.9954811   -1.9891913  0.075012401   -2.9954811    1.0062898   520346 
  468000    1.0865543   -2.9942067   -2.9942067   -1.9898019  0.071739012   -2.9942067    1.0044049   520346 
  469000    1.0867414   -2.9941818   -2.9941818    -1.989604   0.09995273   -2.9941818    1.0045778   520346 
  470000    1.0879237   -2.9959978   -2.9959978    -1.990327   0.11797659   -2.9959978    1.0056707   520346 
  471000    1.0851993   -2.9957106   -2.9957106   -1.9925583   0.10744136   -2.9957106    1.0031523   520346 
  472000    1.0832179   -2.9935293   -2.9935293   -1.9922086  0.089377608   -2.9935293    1.0013207   520346 
  473000    1.0860793   -2.9972402   -2.9972402   -1.9932744  0.093119392   -2.9972402    1.0039658   520346 
  474000    1.0870931   -2.9984798   -2.9984798   -1.9935768  0.077181095   -2.9984798     1.004903   520346 
  475000    1.0838823   -2.9958926   -2.9958926   -1.9939578  0.073653759   -2.9958926    1.0019349   520346 
  476000    1.0841679   -2.9971739   -2.9971739    -1.994975  0.084468215   -2.9971739    1.0021989   520346 
  477000    1.0857547   -2.9990817   -2.9990817   -1.9954159  0.096617168   -2.9990817    1.0036658   520346 
  478000    1.0850916   -2.9997886   -2.9997886   -1.9967359   0.10381119   -2.9997886    1.0030527   520346 
  479000    1.0871648   -3.0011834   -3.0011834   -1.9962142   0.10624062   -3.0011834    1.0049692   520346 
  480000    1.0864365   -3.0002255   -3.0002255   -1.9959295    0.1040611   -3.0002255     1.004296   520346 
  481000    1.0865332   -3.0000094   -3.0000094   -1.9956241  0.089294105   -3.0000094    1.0043853   520346 
  482000    1.0853254   -3.0002122   -3.0002122   -1.9969434  0.083771337   -3.0002122    1.0032689   520346 
  483000    1.0880131   -3.0043258   -3.0043258   -1.9985724  0.078170879   -3.0043258    1.0057534   520346 
  484000    1.0835304   -3.0001078   -3.0001078   -1.9984981  0.076601347   -3.0001078    1.0016096   520346 
  485000    1.0844458   -3.0012783   -3.0012783   -1.9988225   0.10568076   -3.0012783    1.0024558   520346 
  486000    1.0833193   -3.0008883   -3.0008883   -1.9994739  0.095561863   -3.0008883    1.0014144   520346 
  487000     1.084487   -3.0022239   -3.0022239   -1.9997301   0.09074323   -3.0022239    1.0024938   520346 
  488000    1.0835372   -3.0017078   -3.0017078    -2.000092  0.098370631   -3.0017078    1.0016158   520346 
  489000    1.0851281   -3.0031641   -3.0031641   -2.0000776  0.089457164   -3.0031641    1.0030865   520346 
  490000    1.0833597   -3.0026416   -3.0026416   -2.0011898   0.08345643   -3.0026416    1.0014518   520346 
  491000    1.0816667   -3.0016719   -3.0016719   -2.0017852  0.099498689   -3.0016719   0.99988678   520346 
  492000    1.0830264    -3.003803    -3.003803   -2.0026593   0.10039194    -3.003803    1.0011437   520346 
  493000    1.0833794   -3.0045455   -3.0045455   -2.0030755  0.095617583   -3.0045455      1.00147   520346 
  494000    1.0853126   -3.0065558   -3.0065558   -2.0032988  0.086718254   -3.0065558     1.003257   520346 
  495000    1.0828689   -3.0046024   -3.0046024   -2.0036042  0.089168377   -3.0046024    1.0009981   520346 
  496000    1.0824733   -3.0055536   -3.0055536   -2.0049211  0.074571197   -3.0055536    1.0006324   520346 
  497000    1.0838464   -3.0071378   -3.0071378    -2.005236  0.094682382   -3.0071378    1.0019017   520346 
  498000     1.082258   -3.0055831   -3.0055831   -2.0051498  0.087697014   -3.0055831    1.0004334   520346 
  499000    1.0839125   -3.0078413   -3.0078413   -2.0058785  0.098018122   -3.0078413    1.0019628   520346 
  500000    1.0826292   -3.0073264   -3.0073264   -2.0065499  0.089884322   -3.0073264    1.0007765   520346 
  501000    1.0830775   -3.0079158   -3.0079158   -2.0067249   0.09193935   -3.0079158    1.0011909   520346 
  502000    1.0838481    -3.008545    -3.008545   -2.0066418  0.091924259    -3.008545    1.0019032   520346 
  503000    1.0820115   -3.0081971   -3.0081971   -2.0079915  0.084744731   -3.0081971    1.0002055   520346 
  504000     1.081952   -3.0102597   -3.0102597   -2.0101092  0.071323613   -3.0102597    1.0001505   520346 
  505000    1.0805604   -3.0090794   -3.0090794   -2.0102152  0.079258287   -3.0090794   0.99886417   520346 
  506000    1.0812979   -3.0104448   -3.0104448   -2.0108989   0.12357755   -3.0104448   0.99954589   520346 
  507000     1.079302   -3.0096859   -3.0096859   -2.0119851  0.092874206   -3.0096859   0.99770085   520346 
  508000    1.0785803   -3.0096222   -3.0096222   -2.0125884  0.077924738   -3.0096222   0.99703376   520346 
  509000    1.0813039   -3.0128503   -3.0128503   -2.0132989  0.097139833   -3.0128503    0.9995514   520346 
  510000    1.0826027   -3.0140689   -3.0140689   -2.0133169  0.075720956   -3.0140689     1.000752   520346 
  511000     1.081467   -3.0130566   -3.0130566   -2.0133544  0.095813532   -3.0130566   0.99970218   520346 
  512000     1.081602   -3.0129904   -3.0129904   -2.0131634  0.073659114   -3.0129904   0.99982702   520346 
  513000    1.0797339   -3.0115935   -3.0115935   -2.0134934  0.098348132   -3.0115935   0.99810014   520346 
  514000    1.0779346   -3.0107563   -3.0107563   -2.0143194  0.082835599   -3.0107563   0.99643687   520346 
  515000    1.0803134   -3.0139405   -3.0139405   -2.0153047  0.092155858   -3.0139405   0.99863578   520346 
  516000      1.07779   -3.0114951   -3.0114951   -2.0151919  0.066225954   -3.0114951    0.9963032   520346 
  517000    1.0809647   -3.0139168   -3.0139168    -2.014679  0.084760106   -3.0139168   0.99923784   520346 
  518000    1.0787948   -3.0125185   -3.0125185   -2.0152864   0.10361507   -3.0125185   0.99723205   520346 
  519000    1.0799604   -3.0141946   -3.0141946   -2.0158851  0.074865094   -3.0141946    0.9983095   520346 
  520000    1.0787735   -3.0137263   -3.0137263   -2.0165139  0.080305714   -3.0137263   0.99721236   520346 
  521000    1.0779484    -3.013465    -3.013465   -2.0170154  0.093553215    -3.013465    0.9964496   520346 
  522000    1.0771333   -3.0139019   -3.0139019   -2.0182058  0.085369805   -3.0139019    0.9956961   520346 
  523000    1.0774691   -3.0139943   -3.0139943   -2.0179877  0.081305367   -3.0139943   0.99600652   520346 
  524000    1.0788917    -3.015139    -3.015139   -2.0178174  0.099856222    -3.015139   0.99732157   520346 
  525000    1.0771268   -3.0140075   -3.0140075   -2.0183174  0.091116513   -3.0140075   0.99569011   520346 
  526000    1.0781875    -3.016584    -3.016584   -2.0199133  0.080218272    -3.016584   0.99667064   520346 
  527000    1.0786523   -3.0177237   -3.0177237   -2.0206234    0.0872249   -3.0177237   0.99710031   520346 
  528000    1.0783914   -3.0179326   -3.0179326   -2.0210735  0.098252635   -3.0179326   0.99685909   520346 
  529000    1.0764105   -3.0173094   -3.0173094   -2.0222814  0.070106991   -3.0173094   0.99502799   520346 
  530000    1.0771252   -3.0181707   -3.0181707   -2.0224821  0.094165205   -3.0181707   0.99568863   520346 
  531000    1.0772748   -3.0183468   -3.0183468   -2.0225198  0.099978342   -3.0183468   0.99582694   520346 
  532000    1.0763514   -3.0193079   -3.0193079   -2.0243346  0.090273896   -3.0193079   0.99497332   520346 
  533000    1.0779325   -3.0210105   -3.0210105   -2.0245756  0.076354558   -3.0210105   0.99643492   520346 
  534000    1.0772788   -3.0201455   -3.0201455   -2.0243149   0.10791013   -3.0201455   0.99583067   520346 
  535000    1.0776411   -3.0197378   -3.0197378   -2.0235722  0.090952489   -3.0197378   0.99616556   520346 
  536000    1.0766173   -3.0198775   -3.0198775   -2.0246584   0.10876335   -3.0198775   0.99521916   520346 
  537000    1.0776647   -3.0214934   -3.0214934    -2.025306  0.080321883   -3.0214934    0.9961874   520346 
  538000    1.0771221   -3.0207607   -3.0207607   -2.0250749  0.073230129   -3.0207607   0.99568574   520346 
  539000    1.0757861   -3.0198295   -3.0198295   -2.0253787   0.10365065   -3.0198295   0.99445084   520346 
  540000    1.0766728   -3.0214993   -3.0214993   -2.0262289  0.090240153   -3.0214993   0.99527044   520346 
  541000    1.0774617   -3.0231231   -3.0231231   -2.0271235  0.087533372   -3.0231231   0.99599967   520346 
  542000    1.0775675   -3.0242017   -3.0242017   -2.0281042  0.085311729   -3.0242017   0.99609751   520346 
  543000    1.0775749   -3.0246683   -3.0246683    -2.028564  0.094287158   -3.0246683   0.99610435   520346 
  544000    1.0780591   -3.0267392   -3.0267392   -2.0301873  0.090020293   -3.0267392   0.99655192   520346 
  545000    1.0767119   -3.0251509   -3.0251509   -2.0298443  0.076446024   -3.0251509   0.99530659   520346 
  546000    1.0756302   -3.0240654   -3.0240654   -2.0297588  0.061939086   -3.0240654   0.99430668   520346 
  547000    1.0736499   -3.0233667   -3.0233667   -2.0308905  0.085019401   -3.0233667   0.99247613   520346 
  548000    1.0745763     -3.02425     -3.02425   -2.0309175   0.10009271     -3.02425    0.9933325   520346 
  549000    1.0756327   -3.0264483   -3.0264483   -2.0321393  0.069800944   -3.0264483   0.99430897   520346 
  550000    1.0766214   -3.0280185   -3.0280185   -2.0327956  0.098180042   -3.0280185   0.99522298   520346 
  551000    1.0746977   -3.0275954   -3.0275954   -2.0341507  0.081807216   -3.0275954   0.99344465   520346 
  552000    1.0727391   -3.0269242   -3.0269242   -2.0352901  0.091338884   -3.0269242   0.99163412   520346 
  553000    1.0772272    -3.030116    -3.030116   -2.0343331  0.097513197    -3.030116    0.9957829   520346 
  554000    1.0762313   -3.0294579   -3.0294579   -2.0345955   0.10586861   -3.0294579   0.99486235   520346 
  555000     1.075855    -3.029681    -3.029681   -2.0351665  0.079387817    -3.029681   0.99451449   520346 
  556000    1.0774442   -3.0308193   -3.0308193   -2.0348357  0.087848341   -3.0308193   0.99598357   520346 
  557000    1.0770981   -3.0313629   -3.0313629   -2.0356992  0.096354887   -3.0313629   0.99566362   520346 
  558000    1.0753473   -3.0303085   -3.0303085   -2.0362634  0.081481909   -3.0303085   0.99404518   520346 
  559000    1.0761603   -3.0314077   -3.0314077    -2.036611   0.08083701   -3.0314077    0.9947967   520346 
  560000    1.0731419   -3.0298957   -3.0298957   -2.0378891  0.093843033   -3.0298957   0.99200655   520346 
  561000    1.0737455    -3.031059    -3.031059   -2.0384945  0.075103115    -3.031059   0.99256449   520346 
  562000    1.0756111   -3.0325751   -3.0325751   -2.0382861  0.080925511   -3.0325751     0.994289   520346 
  563000    1.0740546   -3.0323292   -3.0323292   -2.0394789  0.083951783   -3.0323292   0.99285023   520346 
  564000    1.0747662   -3.0335505   -3.0335505   -2.0400425  0.098399474   -3.0335505   0.99350799   520346 
  565000    1.0761103   -3.0343894   -3.0343894   -2.0396389  0.086848358   -3.0343894   0.99475047   520346 
  566000    1.0756391   -3.0339355   -3.0339355   -2.0396206    0.0784214   -3.0339355    0.9943149   520346 
  567000    1.0738897   -3.0323433   -3.0323433   -2.0396455   0.07492367   -3.0323433   0.99269776   520346 
  568000    1.0751216   -3.0326748   -3.0326748   -2.0388383  0.083930979   -3.0326748   0.99383653   520346 
  569000    1.0742798   -3.0325398   -3.0325398   -2.0394815  0.085136222   -3.0325398   0.99305837   520346 
  570000    1.0722359   -3.0311979   -3.0311979   -2.0400289   0.10164882   -3.0311979   0.99116897   520346 
  571000    1.0755457   -3.0354101   -3.0354101   -2.0411815  0.085141862   -3.0354101   0.99422854   520346 
  572000    1.0735574   -3.0345192   -3.0345192   -2.0421287  0.093885261   -3.0345192   0.99239057   520346 
  573000     1.071152    -3.033641    -3.033641    -2.043474  0.071671775    -3.033641   0.99016703   520346 
  574000    1.0744636   -3.0367751   -3.0367751   -2.0435468  0.084094666   -3.0367751   0.99322826   520346 
  575000    1.0720518   -3.0344578   -3.0344578   -2.0434589  0.070165444   -3.0344578   0.99099886   520346 
  576000    1.0746946   -3.0368593   -3.0368593   -2.0434175  0.091875605   -3.0368593   0.99344181   520346 
  577000    1.0729416   -3.0362799   -3.0362799   -2.0444585  0.090204991   -3.0362799   0.99182136   520346 
  578000    1.0695535   -3.0336816   -3.0336816   -2.0449921  0.087938945   -3.0336816   0.98868946   520346 
  579000    1.0729122   -3.0372553   -3.0372553   -2.0454611  0.091861897   -3.0372553    0.9917942   520346 
  580000     1.072342    -3.037239    -3.037239   -2.0459719   0.09101726    -3.037239    0.9912671   520346 
  581000    1.0732483   -3.0387598   -3.0387598   -2.0466549  0.096620917   -3.0387598    0.9921049   520346 
  582000    1.0720899   -3.0377777   -3.0377777   -2.0467436  0.080795821   -3.0377777   0.99103408   520346 
  583000     1.073485   -3.0394106   -3.0394106    -2.047087  0.073269627   -3.0394106   0.99232369   520346 
  584000    1.0734061   -3.0390139   -3.0390139   -2.0467632   0.08479836   -3.0390139   0.99225074   520346 
  585000    1.0718076   -3.0380769   -3.0380769   -2.0473038   0.10208097   -3.0380769   0.99077309   520346 
  586000    1.0719055    -3.039353    -3.039353   -2.0484895  0.092039525    -3.039353   0.99086355   520346 
  587000    1.0711425   -3.0397115   -3.0397115   -2.0495532   0.10334169   -3.0397115   0.99015824   520346 
  588000    1.0717157   -3.0403234   -3.0403234   -2.0496352  0.093392049   -3.0403234   0.99068813   520346 
  589000    1.0710896   -3.0404634   -3.0404634   -2.0503539  0.091271717   -3.0404634   0.99010941   520346 
  590000    1.0694318   -3.0391163   -3.0391163   -2.0505394  0.087873983   -3.0391163   0.98857689   520346 
  591000    1.0702729   -3.0407306   -3.0407306   -2.0513762  0.078805662   -3.0407306   0.98935445   520346 
  592000    1.0693509   -3.0402913   -3.0402913   -2.0517892  0.081202407   -3.0402913    0.9885021   520346 
  593000    1.0688077   -3.0408375   -3.0408375   -2.0528375  0.088339329   -3.0408375   0.98799998   520346 
  594000    1.0716438   -3.0444622   -3.0444622   -2.0538405  0.097576117   -3.0444622   0.99062167   520346 
  595000    1.0709252   -3.0435353   -3.0435353   -2.0535779  0.095043478   -3.0435353    0.9899574   520346 
  596000    1.0710154   -3.0433629   -3.0433629   -2.0533221  0.084075012   -3.0433629   0.99004074   520346 
  597000    1.0710745   -3.0434828   -3.0434828   -2.0533874  0.098739628   -3.0434828   0.99009544   520346 
  598000    1.0727406   -3.0462615   -3.0462615   -2.0546259  0.082518541   -3.0462615   0.99163559   520346 
  599000    1.0674289   -3.0405952   -3.0405952   -2.0538697  0.088020249   -3.0405952   0.98672545   520346 
  600000    1.0685228   -3.0419276   -3.0419276   -2.0541909  0.083544393   -3.0419276   0.98773665   520346 
  601000    1.0733178   -3.0453193   -3.0453193   -2.0531502   0.09785661   -3.0453193   0.99216916   520346 
  602000    1.0700367   -3.0422462   -3.0422462   -2.0531101  0.078272903   -3.0422462   0.98913605   520346 
  603000    1.0727607    -3.045261    -3.045261   -2.0536069  0.089301776    -3.045261   0.99165409   520346 
  604000    1.0708931   -3.0438541   -3.0438541   -2.0539263   0.10410712   -3.0438541   0.98992775   520346 
  605000    1.0709733   -3.0438316   -3.0438316   -2.0538297  0.087719222   -3.0438316   0.99000187   520346 
  606000    1.0707911   -3.0449861   -3.0449861   -2.0551527  0.097675731   -3.0449861    0.9898334   520346 
  607000    1.0704507   -3.0455944   -3.0455944   -2.0560756  0.078337814   -3.0455944   0.98951879   520346 
  608000    1.0711843   -3.0458122   -3.0458122   -2.0556152  0.084526262   -3.0458122   0.99019695   520346 
  609000    1.0708152   -3.0455918   -3.0455918    -2.055736   0.07255612   -3.0455918   0.98985574   520346 
  610000    1.0692701    -3.045163    -3.045163   -2.0567356  0.085960824    -3.045163    0.9884274   520346 
  611000    1.0709736   -3.0472768   -3.0472768   -2.0572746  0.080784009   -3.0472768   0.99000211   520346 
  612000    1.0703718   -3.0475407   -3.0475407   -2.0580948  0.099669777   -3.0475407   0.98944586   520346 
  613000    1.0709768    -3.047946    -3.047946   -2.0579409  0.085482764    -3.047946   0.99000511   520346 
  614000    1.0710794   -3.0488592   -3.0488592   -2.0587592   0.10502839   -3.0488592   0.99009997   520346 
  615000    1.0716067   -3.0498755   -3.0498755   -2.0592881  0.074970891   -3.0498755   0.99058738   520346 
  616000    1.0704628   -3.0490106   -3.0490106   -2.0594806  0.064110421   -3.0490106   0.98952999   520346 
  617000    1.0704233   -3.0508771   -3.0508771   -2.0613836   0.09883773   -3.0508771   0.98949346   520346 
  618000    1.0694482   -3.0498484   -3.0498484   -2.0612563  0.098474146   -3.0498484   0.98859207   520346 
  619000    1.0694435   -3.0502709   -3.0502709   -2.0616832  0.087288604   -3.0502709   0.98858775   520346 
  620000    1.0707193   -3.0508485   -3.0508485   -2.0610814  0.082156956   -3.0508485   0.98976703   520346 
  621000    1.0698604   -3.0507444   -3.0507444   -2.0617713  0.090436083   -3.0507444   0.98897307   520346 
  622000    1.0692872   -3.0509746   -3.0509746   -2.0625313  0.098374227   -3.0509746   0.98844329   520346 
  623000    1.0684695   -3.0499212   -3.0499212   -2.0622339  0.098410487   -3.0499212   0.98768732   520346 
  624000    1.0707402   -3.0515575   -3.0515575   -2.0617711  0.086244357   -3.0515575    0.9897864   520346 
  625000    1.0686968   -3.0507733   -3.0507733   -2.0628758  0.075010583   -3.0507733   0.98789745   520346 
  626000    1.0700648   -3.0531846   -3.0531846   -2.0640225  0.088430595   -3.0531846   0.98916206   520346 
  627000    1.0679081   -3.0518429   -3.0518429   -2.0646744  0.065207834   -3.0518429   0.98716844   520346 
  628000    1.0693101   -3.0534141   -3.0534141   -2.0649496  0.092113251   -3.0534141   0.98846444   520346 
  629000    1.0688643   -3.0542784   -3.0542784   -2.0662261  0.083152636   -3.0542784   0.98805235   520346 
  630000    1.0672015   -3.0525874   -3.0525874   -2.0660722  0.067515918   -3.0525874   0.98651523   520346 
  631000    1.0666154    -3.052304    -3.052304   -2.0663305   0.10823942    -3.052304   0.98597347   520346 
  632000    1.0681651   -3.0550455   -3.0550455   -2.0676395   0.07225802   -3.0550455   0.98740595   520346 
  633000    1.0674299   -3.0541252   -3.0541252   -2.0673988  0.080777887   -3.0541252   0.98672636   520346 
  634000    1.0714046    -3.058417    -3.058417   -2.0680165  0.070800239    -3.058417   0.99040052   520346 
  635000    1.0695279   -3.0562493   -3.0562493   -2.0675835  0.088877429   -3.0562493   0.98866576   520346 
  636000    1.0694733   -3.0567036   -3.0567036   -2.0680884  0.091894661   -3.0567036   0.98861526   520346 
  637000    1.0662366   -3.0549589   -3.0549589   -2.0693356  0.080862399   -3.0549589   0.98562328   520346 
  638000    1.0677864    -3.056308    -3.056308   -2.0692521  0.066515552    -3.056308    0.9870559   520346 
  639000     1.067313   -3.0557851   -3.0557851   -2.0691669   0.10910971   -3.0557851   0.98661826   520346 
  640000    1.0669996   -3.0572575   -3.0572575   -2.0709289  0.087484887   -3.0572575   0.98632858   520346 
  641000    1.0690952   -3.0593929   -3.0593929   -2.0711271   0.10297959   -3.0593929   0.98826579   520346 
  642000    1.0673403   -3.0582867   -3.0582867   -2.0716431  0.084980053   -3.0582867   0.98664357   520346 
  643000    1.0676762   -3.0579393   -3.0579393   -2.0709852  0.084550486   -3.0579393   0.98695407   520346 
  644000    1.0690198   -3.0586615   -3.0586615   -2.0704654   0.08570483   -3.0586615   0.98819609   520346 
  645000    1.0700107   -3.0598417   -3.0598417   -2.0707296  0.088069981   -3.0598417   0.98911208   520346 
  646000    1.0686581   -3.0593128   -3.0593128    -2.071451  0.099602576   -3.0593128   0.98786174   520346 
  647000    1.0674208   -3.0584371   -3.0584371   -2.0717192  0.084709809   -3.0584371   0.98671792   520346 
  648000    1.0655811   -3.0570111   -3.0570111   -2.0719938  0.092200094   -3.0570111   0.98501732   520346 
[...]
 3241000    1.0177552   -3.3178032   -3.3178032   -2.3769958  0.075063721   -3.3178032   0.94080739   520346 
 3242000    1.0160449   -3.3177396   -3.3177396   -2.3785133  0.074579917   -3.3177396   0.93922638   520346 
 3243000    1.0165668   -3.3181741   -3.3181741   -2.3784653  0.078456804   -3.3181741   0.93970879   520346 
 3244000    1.0180606   -3.3195023   -3.3195023   -2.3784127  0.077741782   -3.3195023   0.94108965   520346 
 3245000    1.0160809   -3.3169579   -3.3169579   -2.3776982  0.067937527   -3.3169579   0.93925964   520346 
 3246000    1.0165174   -3.3178793   -3.3178793   -2.3782162  0.074532609   -3.3178793   0.93966311   520346 
 3247000    1.0173545    -3.319066    -3.319066    -2.378629  0.069726519    -3.319066   0.94043697   520346 
 3248000    1.0172814   -3.3188859   -3.3188859   -2.3785166  0.060204852   -3.3188859   0.94036934   520346 
 3249000    1.0179719   -3.3193054   -3.3193054   -2.3782977  0.081614522   -3.3193054   0.94100764   520346 
 3250000    1.0149426   -3.3157065   -3.3157065   -2.3774992  0.084536365   -3.3157065   0.93820736   520346 
 3251000    1.0170548   -3.3172645   -3.3172645   -2.3771046  0.056310955   -3.3172645   0.94015993   520346 
 3252000     1.017915   -3.3185665   -3.3185665   -2.3776114  0.076646135   -3.3185665   0.94095506   520346 
 3253000    1.0153674   -3.3163448   -3.3163448   -2.3777448  0.074221748   -3.3163448   0.93860009   520346 
 3254000    1.0173924   -3.3171725   -3.3171725   -2.3767005  0.059023804   -3.3171725   0.94047197   520346 
 3255000    1.0173884   -3.3163187   -3.3163187   -2.3758505   0.06410028   -3.3163187   0.94046824   520346 
 3256000    1.0188897   -3.3184066   -3.3184066   -2.3765505  0.063166415   -3.3184066   0.94185605   520346 
 3257000     1.019545   -3.3188356   -3.3188356   -2.3763737  0.068792404   -3.3188356   0.94246183   520346 
 3258000    1.0164905   -3.3163035   -3.3163035   -2.3766652  0.075728572   -3.3163035   0.93963829   520346 
 3259000    1.0164586   -3.3161041   -3.3161041   -2.3764953  0.073425777   -3.3161041   0.93960882   520346 
 3260000    1.0195852   -3.3195586   -3.3195586   -2.3770597  0.073556085   -3.3195586   0.94249899   520346 
 3261000    1.0179702   -3.3175289   -3.3175289   -2.3765228  0.073893875   -3.3175289   0.94100608   520346 
 3262000     1.019263   -3.3187546   -3.3187546   -2.3765535  0.073524873   -3.3187546   0.94220112   520346 
 3263000    1.0178875   -3.3175213   -3.3175213   -2.3765916  0.077630938   -3.3175213   0.94092968   520346 
 3264000    1.0196533   -3.3201763   -3.3201763   -2.3776144  0.073188129   -3.3201763   0.94256191   520346 
 3265000    1.0181781   -3.3191577   -3.3191577   -2.3779594  0.062661458   -3.3191577   0.94119829   520346 
 3266000    1.0175405   -3.3180181   -3.3180181   -2.3774092  0.073350791   -3.3180181   0.94060892   520346 
 3267000    1.0184626   -3.3187863   -3.3187863   -2.3773251  0.086421036   -3.3187863   0.94146124   520346 
 3268000    1.0173403   -3.3185646   -3.3185646   -2.3781408  0.075783032   -3.3185646   0.94042381   520346 
 3269000    1.0170238    -3.319439    -3.319439   -2.3793077  0.067957013    -3.319439   0.94013129   520346 
 3270000    1.0166238    -3.319554    -3.319554   -2.3797926  0.049904774    -3.319554   0.93976145   520346 
 3271000    1.0167024   -3.3193384   -3.3193384   -2.3795042  0.065649826   -3.3193384   0.93983416   520346 
 3272000    1.0156475   -3.3195658   -3.3195658   -2.3807068  0.060655027   -3.3195658   0.93885903   520346 
 3273000    1.0162265    -3.320165    -3.320165   -2.3807708  0.079628355    -3.320165   0.93939421   520346 
 3274000    1.0170563   -3.3199359   -3.3199359   -2.3797746  0.050311805   -3.3199359   0.94016133   520346 
 3275000    1.0171515   -3.3198089   -3.3198089   -2.3795596  0.071325178   -3.3198089   0.94024931   520346 
 3276000    1.0179785   -3.3201725   -3.3201725   -2.3791587  0.073386087   -3.3201725   0.94101372   520346 
 3277000    1.0186252   -3.3210379   -3.3210379   -2.3794263  0.076725044   -3.3210379   0.94161153   520346 
 3278000    1.0167113   -3.3204631   -3.3204631   -2.3806207  0.072261512   -3.3204631   0.93984234   520346 
 3279000    1.0175201     -3.32049     -3.32049      -2.3799  0.074156189     -3.32049   0.94058999   520346 
 3280000    1.0165533   -3.3198212   -3.3198212   -2.3801248  0.070158551   -3.3198212   0.93969636   520346 
 3281000    1.0174951   -3.3205712   -3.3205712   -2.3800043  0.065738799   -3.3205712   0.94056691   520346 
 3282000    1.0184303   -3.3205165   -3.3205165   -2.3790851  0.061667132   -3.3205165    0.9414314   520346 
 3283000    1.0189017   -3.3211109   -3.3211109   -2.3792438  0.065663691   -3.3211109   0.94186715   520346 
 3284000     1.016815   -3.3202854   -3.3202854   -2.3803472  0.077244955   -3.3202854   0.93993824   520346 
 3285000    1.0171388   -3.3197979   -3.3197979   -2.3795604   0.10153726   -3.3197979   0.94023754   520346 
 3286000    1.0178396   -3.3206336   -3.3206336   -2.3797483  0.064901516   -3.3206336   0.94088535   520346 
 3287000    1.0174711   -3.3205596   -3.3205596   -2.3800149  0.080299003   -3.3205596   0.94054471   520346 
 3288000    1.0167288   -3.3199247   -3.3199247   -2.3800661   0.06621593   -3.3199247   0.93985857   520346 
 3289000    1.0166672   -3.3204593   -3.3204593   -2.3806577  0.064292966   -3.3204593   0.93980161   520346 
 3290000    1.0149815   -3.3187321   -3.3187321   -2.3804888  0.076579182   -3.3187321   0.93824334   520346 
 3291000    1.0153877   -3.3186799   -3.3186799   -2.3800611  0.057563533   -3.3186799   0.93861881   520346 
 3292000     1.015385   -3.3185032   -3.3185032   -2.3798869  0.066209922   -3.3185032   0.93861633   520346 
 3293000    1.0174653    -3.320472    -3.320472   -2.3799327  0.071535267    -3.320472   0.94053935   520346 
 3294000    1.0162652   -3.3188622   -3.3188622   -2.3794322  0.072846519   -3.3188622   0.93942999   520346 
 3295000    1.0163209    -3.319861    -3.319861   -2.3803795  0.068803705    -3.319861    0.9394815   520346 
 3296000    1.0169371   -3.3191326   -3.3191326   -2.3790815  0.080260493   -3.3191326   0.94005109   520346 
 3297000    1.0180852   -3.3205039   -3.3205039   -2.3793915  0.060635439   -3.3205039   0.94111241   520346 
 3298000    1.0175847   -3.3203724   -3.3203724   -2.3797227  0.070587879   -3.3203724   0.94064971   520346 
 3299000    1.0179761   -3.3205434   -3.3205434   -2.3795318  0.068436371   -3.3205434   0.94101156   520346 
 3300000    1.0186953   -3.3210566   -3.3210566   -2.3793803  0.084119906   -3.3210566   0.94167633   520346 
 3301000    1.0199834   -3.3217912   -3.3217912   -2.3789241  0.077843765   -3.3217912   0.94286707   520346 
 3302000    1.0164276    -3.318652    -3.318652   -2.3790718  0.080499661    -3.318652   0.93958015   520346 
 3303000    1.0181456   -3.3202983   -3.3202983     -2.37913  0.077904286   -3.3202983   0.94116826   520346 
 3304000    1.0175545   -3.3195579   -3.3195579   -2.3789362  0.062336093   -3.3195579   0.94062178   520346 
 3305000    1.0185162   -3.3206727   -3.3206727   -2.3791619  0.085862671   -3.3206727   0.94151082   520346 
 3306000    1.0182591   -3.3212611   -3.3212611   -2.3799879  0.081403767   -3.3212611   0.94127318   520346 
 3307000    1.0193826   -3.3219167   -3.3219167   -2.3796049  0.070622762   -3.3219167   0.94231174   520346 
 3308000    1.0185917   -3.3225665   -3.3225665    -2.380986  0.072885149   -3.3225665   0.94158058   520346 
 3309000    1.0188664   -3.3219583   -3.3219583   -2.3801237   0.06417451   -3.3219583   0.94183457   520346 
 3310000    1.0189975   -3.3212491   -3.3212491   -2.3792934  0.076564466   -3.3212491   0.94195568   520346 
 3311000    1.0198185   -3.3222803   -3.3222803   -2.3795656  0.066721261   -3.3222803   0.94271469   520346 
 3312000    1.0195171    -3.321579    -3.321579    -2.379143  0.069977647    -3.321579     0.942436   520346 
 3313000    1.0173704    -3.320667    -3.320667   -2.3802153  0.065265424    -3.320667   0.94045168   520346 
 3314000    1.0183856   -3.3209885   -3.3209885   -2.3795984  0.082396905   -3.3209885   0.94139009   520346 
 3315000    1.0162435   -3.3188252   -3.3188252   -2.3794153  0.058713525   -3.3188252   0.93940994   520346 
 3316000    1.0154833   -3.3190828   -3.3190828   -2.3803755  0.071016955   -3.3190828   0.93870726   520346 
 3317000     1.018845   -3.3220877   -3.3220877    -2.380273   0.05897351   -3.3220877   0.94181472   520346 
 3318000     1.014903   -3.3187728   -3.3187728    -2.380602  0.067845268   -3.3187728   0.93817081   520346 
 3319000    1.0143572   -3.3185257   -3.3185257   -2.3808595  0.066131867   -3.3185257   0.93766623   520346 
 3320000    1.0155138   -3.3187654   -3.3187654   -2.3800301  0.042658352   -3.3187654   0.93873537   520346 
 3321000    1.0165259   -3.3196743   -3.3196743   -2.3800033  0.063864431   -3.3196743   0.93967099   520346 
 3322000    1.0184002   -3.3215797   -3.3215797   -2.3801761  0.060281355   -3.3215797   0.94140357   520346 
 3323000    1.0163382   -3.3198215   -3.3198215   -2.3803241   0.07545841   -3.3198215   0.93949747   520346 
 3324000    1.0162464   -3.3197059   -3.3197059   -2.3802933   0.04775269   -3.3197059   0.93941261   520346 
 3325000    1.0155371   -3.3193553   -3.3193553   -2.3805984  0.086066375   -3.3193553   0.93875691   520346 
 3326000     1.016216   -3.3200214   -3.3200214   -2.3806369  0.067900995   -3.3200214   0.93938449   520346 
 3327000    1.0149806   -3.3191077   -3.3191077   -2.3808652  0.068082603   -3.3191077   0.93824249   520346 
 3328000    1.0158297   -3.3201417   -3.3201417   -2.3811143  0.067613762   -3.3201417   0.93902743   520346 
 3329000    1.0166981   -3.3210154   -3.3210154   -2.3811853  0.066465631   -3.3210154   0.93983016   520346 
 3330000    1.0160951   -3.3198885   -3.3198885   -2.3806158   0.07153404   -3.3198885   0.93927273   520346 
 3331000    1.0158333   -3.3204077   -3.3204077    -2.381377  0.053952822   -3.3204077   0.93903072   520346 
 3332000    1.0158008   -3.3193796   -3.3193796   -2.3803789  0.069295271   -3.3193796   0.93900068   520346 
 3333000    1.0156101   -3.3194945   -3.3194945     -2.38067  0.077556744   -3.3194945   0.93882446   520346 
 3334000    1.0177254   -3.3208209   -3.3208209   -2.3800412   0.07918164   -3.3208209   0.94077977   520346 
 3335000    1.0174314    -3.321317    -3.321317    -2.380809   0.07919932    -3.321317   0.94050801   520346 
 3336000    1.0188328   -3.3224639   -3.3224639   -2.3806605  0.072404158   -3.3224639   0.94180344   520346 
 3337000    1.0169089   -3.3214843   -3.3214843   -2.3814593  0.063326199   -3.3214843   0.94002501   520346 
 3338000    1.0160493   -3.3210271   -3.3210271   -2.3817966  0.051809092   -3.3210271   0.93923042   520346 
 3339000    1.0172882   -3.3224876   -3.3224876   -2.3821119  0.077396864   -3.3224876   0.94037567   520346 
 3340000    1.0163052   -3.3205689   -3.3205689   -2.3811019    0.0842916   -3.3205689   0.93946696   520346 
 3341000    1.0155152   -3.3205898   -3.3205898   -2.3818531   0.08627529   -3.3205898   0.93873673   520346 
 3342000    1.0165871   -3.3223976   -3.3223976     -2.38267  0.054004791   -3.3223976    0.9397276   520346 
 3343000    1.0157675    -3.321426    -3.321426    -2.382456  0.070110509    -3.321426   0.93896996   520346 
 3344000    1.0170302   -3.3227205   -3.3227205   -2.3825834  0.078119789   -3.3227205   0.94013712   520346 
 3345000    1.0154352   -3.3212705   -3.3212705   -2.3826077  0.075380687   -3.3212705   0.93866277   520346 
 3346000    1.0180919   -3.3240627   -3.3240627   -2.3829441  0.070327577   -3.3240627   0.94111863   520346 
 3347000    1.0186512   -3.3236837   -3.3236837   -2.3820481  0.077449417   -3.3236837    0.9416356   520346 
 3348000    1.0163872   -3.3225596   -3.3225596   -2.3830169  0.076292039   -3.3225596   0.93954274   520346 
 3349000    1.0169604   -3.3228718   -3.3228718   -2.3827992  0.060644606   -3.3228718    0.9400726   520346 
 3350000     1.017905    -3.324069    -3.324069   -2.3831232  0.061660854    -3.324069   0.94094584   520346 
 3351000      1.01617   -3.3221357   -3.3221357   -2.3827937  0.054879858   -3.3221357   0.93934198   520346 
 3352000    1.0145375   -3.3205866   -3.3205866   -2.3827536  0.068686927   -3.3205866   0.93783295   520346 
 3353000    1.0163142   -3.3230539   -3.3230539   -2.3835786  0.066971863   -3.3230539   0.93947534   520346 
 3354000    1.0157559   -3.3231341   -3.3231341   -2.3841749   0.05442961   -3.3231341   0.93895922   520346 
 3355000    1.0138453   -3.3204428   -3.3204428   -2.3832497  0.064431695   -3.3204428   0.93719308   520346 
 3356000    1.0162208   -3.3230637   -3.3230637   -2.3836747  0.062180144   -3.3230637   0.93938894   520346 
 3357000    1.0171067   -3.3236245   -3.3236245   -2.3834166  0.056532917   -3.3236245   0.94020788   520346 
 3358000     1.016566   -3.3233473   -3.3233473   -2.3836393    0.0813944   -3.3233473   0.93970806   520346 
 3359000    1.0185837   -3.3246935   -3.3246935   -2.3831203  0.066146612   -3.3246935   0.94157321   520346 
 3360000    1.0182979   -3.3243116   -3.3243116   -2.3830025  0.063893173   -3.3243116   0.94130906   520346 
 3361000    1.0164946   -3.3231427   -3.3231427   -2.3835006  0.058094453   -3.3231427   0.93964206   520346 
 3362000     1.016511   -3.3227464   -3.3227464   -2.3830891  0.073188502   -3.3227464   0.93965725   520346 
 3363000     1.016578   -3.3233653   -3.3233653   -2.3836462  0.081402878   -3.3233653   0.93971912   520346 
 3364000    1.0163883   -3.3229602   -3.3229602   -2.3834164   0.06738993   -3.3229602   0.93954382   520346 
 3365000    1.0150766   -3.3222374   -3.3222374   -2.3839062  0.085772494   -3.3222374   0.93833123   520346 
 3366000    1.0158177   -3.3215419   -3.3215419   -2.3825255  0.056274508   -3.3215419   0.93901633   520346 
 3367000    1.0151375   -3.3208685   -3.3208685    -2.382481  0.079636348   -3.3208685   0.93838752   520346 
 3368000    1.0137776   -3.3190969   -3.3190969   -2.3819664  0.072861587   -3.3190969   0.93713045   520346 
 3369000    1.0154778   -3.3209289   -3.3209289   -2.3822268  0.090315747   -3.3209289   0.93870212   520346 
 3370000    1.0155514   -3.3221228   -3.3221228   -2.3833526  0.062772326   -3.3221228   0.93877013   520346 
 3371000     1.014485   -3.3213455   -3.3213455   -2.3835611   0.07860123   -3.3213455   0.93778441   520346 
 3372000    1.0184917   -3.3245279   -3.3245279   -2.3830398  0.059520659   -3.3245279   0.94148813   520346 
 3373000    1.0163275   -3.3225387   -3.3225387    -2.383051  0.081007805   -3.3225387   0.93948763   520346 
 3374000    1.0150691   -3.3220687   -3.3220687   -2.3837444  0.072001442   -3.3220687    0.9383243   520346 
 3375000    1.0169855   -3.3232571   -3.3232571   -2.3831613  0.062641576   -3.3232571   0.94009581   520346 
 3376000    1.0179258    -3.323176    -3.323176   -2.3822109  0.065170813    -3.323176   0.94096508   520346 
 3377000    1.0171777   -3.3222657   -3.3222657   -2.3819921   0.10257842   -3.3222657   0.94027355   520346 
 3378000     1.018388    -3.323796    -3.323796   -2.3824036  0.067292156    -3.323796   0.94139235   520346 
 3379000    1.0162454   -3.3219096   -3.3219096   -2.3824979  0.070032723   -3.3219096    0.9394117   520346 
 3380000    1.0178557   -3.3237565   -3.3237565   -2.3828562  0.061911525   -3.3237565   0.94090029   520346 
 3381000    1.0174542   -3.3233628   -3.3233628   -2.3828337  0.061361204   -3.3233628   0.94052912   520346 
 3382000     1.014291   -3.3207881   -3.3207881    -2.383183  0.068230967   -3.3207881   0.93760504   520346 
 3383000    1.0166539   -3.3237719   -3.3237719   -2.3839826  0.051114689   -3.3237719   0.93978932   520346 
 3384000    1.0129488   -3.3209833   -3.3209833    -2.384619  0.065914794   -3.3209833   0.93636438   520346 
 3385000    1.0156774   -3.3236486   -3.3236486    -2.384762  0.047371395   -3.3236486   0.93888662   520346 
 3386000     1.017987    -3.325467    -3.325467   -2.3844454  0.065196345    -3.325467   0.94102161   520346 
 3387000    1.0157112   -3.3235709   -3.3235709    -2.384653    0.0700841   -3.3235709   0.93891787   520346 
 3388000    1.0173791   -3.3247643   -3.3247643   -2.3843046  0.052233171   -3.3247643   0.94045969   520346 
 3389000    1.0176734   -3.3238861   -3.3238861   -2.3831544  0.058354295   -3.3238861    0.9407317   520346 
 3390000    1.0167196   -3.3228883   -3.3228883   -2.3830383  0.069468026   -3.3228883      0.93985   520346 
 3391000    1.0187108   -3.3246456   -3.3246456   -2.3829548  0.073892219   -3.3246456   0.94169074   520346 
 3392000    1.0169865   -3.3232408   -3.3232408    -2.383144  0.059140879   -3.3232408   0.94009673   520346 
 3393000    1.0177926   -3.3230613   -3.3230613   -2.3822193  0.077261001   -3.3230613   0.94084196   520346 
 3394000    1.0180722   -3.3234585   -3.3234585   -2.3823581  0.064555072   -3.3234585   0.94110034   520346 
 3395000    1.0162084   -3.3217518   -3.3217518   -2.3823743  0.074827782   -3.3217518   0.93937747   520346 
 3396000    1.0174949   -3.3235693   -3.3235693   -2.3830025  0.090483094   -3.3235693   0.94056674   520346 
 3397000     1.017739   -3.3225578   -3.3225578   -2.3817654  0.074767347   -3.3225578   0.94079236   520346 
 3398000    1.0186822   -3.3234798   -3.3234798   -2.3818155  0.056600267   -3.3234798   0.94166428   520346 
 3399000    1.0164599   -3.3228194   -3.3228194   -2.3832095  0.071478068   -3.3228194   0.93960999   520346 
 3400000    1.0182337   -3.3241476   -3.3241476   -2.3828979  0.068609007   -3.3241476   0.94124968   520346 
 3401000    1.0164912   -3.3210684   -3.3210684   -2.3814295   0.08226945   -3.3210684   0.93963893   520346 
 3402000    1.0168207   -3.3225869   -3.3225869   -2.3826434   0.05840378   -3.3225869   0.93994349   520346 
 3403000    1.0177562   -3.3233567   -3.3233567   -2.3825484  0.076895661   -3.3233567   0.94080824   520346 
 3404000    1.0179363   -3.3233115   -3.3233115   -2.3823368  0.051216589   -3.3233115   0.94097476   520346 
 3405000    1.0169747   -3.3226271   -3.3226271   -2.3825412  0.049082731   -3.3226271   0.94008589   520346 
 3406000    1.0179519   -3.3233906   -3.3233906   -2.3824015   0.07085371   -3.3233906   0.94098913   520346 
 3407000     1.015169   -3.3205908   -3.3205908   -2.3821742  0.089597353   -3.3205908   0.93841664   520346 
 3408000    1.0177017   -3.3228273   -3.3228273   -2.3820695  0.075433238   -3.3228273   0.94075789   520346 
 3409000    1.0178526   -3.3229433   -3.3229433   -2.3820459  0.054642553   -3.3229433   0.94089742   520346 
 3410000    1.0164767   -3.3219829   -3.3219829   -2.3823574  0.077225952   -3.3219829    0.9396255   520346 
 3411000    1.0164219   -3.3211553   -3.3211553   -2.3815805  0.068139673   -3.3211553   0.93957483   520346 
 3412000    1.0156756   -3.3200859   -3.3200859   -2.3812009  0.079320864   -3.3200859   0.93888499   520346 
 3413000    1.0183782   -3.3232219   -3.3232219   -2.3818387  0.079339941   -3.3232219   0.94138322   520346 
 3414000    1.0201337   -3.3255878   -3.3255878   -2.3825818  0.067045968   -3.3255878   0.94300603   520346 
 3415000     1.016809   -3.3234684   -3.3234684   -2.3835357  0.054022807   -3.3234684   0.93993267   520346 
 3416000    1.0167112   -3.3242956   -3.3242956   -2.3844533  0.063009252   -3.3242956    0.9398423   520346 
 3417000    1.0147663   -3.3224216   -3.3224216   -2.3843771  0.073418144   -3.3224216   0.93804447   520346 
 3418000    1.0158886   -3.3237185   -3.3237185   -2.3846367  0.074129556   -3.3237185   0.93908184   520346 
 3419000    1.0162367   -3.3234307   -3.3234307   -2.3840271  0.062261576   -3.3234307   0.93940361   520346 
 3420000    1.0162087   -3.3234914   -3.3234914   -2.3841136  0.062645214   -3.3234914   0.93937778   520346 
 3421000    1.0184661   -3.3252488   -3.3252488   -2.3837843  0.078185218   -3.3252488   0.94146452   520346 
 3422000