LAMMPS (29 Oct 2020)
  using 1 OpenMP thread(s) per MPI task
#Read the equilibrated lj fluid and add nanocubes

units           lj
atom_style      full
#atom_modify     map array first cubes
dimension       3
boundary        p p f
pair_style      lj/cut/opt 2.5

variable        sigma           equal 1.0
variable        epsilon         equal 1.0
read_restart	restart.dat.10000000
Reading restart file ...
  restart file = 29 Oct 2020, LAMMPS = 29 Oct 2020
WARNING: Restart file used different # of processors: 64 vs. 128 (src/read_restart.cpp:697)
  restoring atom style full from restart
  orthogonal box = (0.0000000 0.0000000 0.0000000) to (80.000000 80.000000 160.00000)
  4 by 4 by 8 MPI processor grid
  restoring pair style lj/cut/opt from restart
  507356 atoms
Finding 1-2 1-3 1-4 neighbors ...
  special bond factors lj:    0.0      0.0      0.0     
  special bond factors coul:  0.0      0.0      0.0     
     0 = max # of 1-2 neighbors
     0 = max # of 1-3 neighbors
     0 = max # of 1-4 neighbors
     1 = max # of special neighbors
  special bonds CPU = 2.727 seconds
  read_restart CPU = 4.057 seconds

group		solvent type 1
307331 atoms in group solvent
group 		hull  type 2
78050 atoms in group hull
group 		dummy type 3
121975 atoms in group dummy

neighbor      0.4 bin
neigh_modify  exclude molecule/intra cubes

pair_modify   shift yes

pair_coeff    1 1 1.0 1.0 #solvent
pair_coeff    2 2 1.0 1.0 1.12 #np
pair_coeff    3 3 0.0 0.0 0.0 #dummy
pair_coeff    2 3 0.0 0.0 0.0 #np dummy
pair_coeff    1 2 ${sol} 1.0  #np solvent
pair_coeff    1 2 0.90 1.0  
pair_coeff    1 3 0.0 0.0 0.0 #dummy solvent


comm_modify   mode multi cutoff/multi 1 2.5 cutoff/multi 2 2.5 cutoff/multi 3 6.95

reset_timestep 	0

balance 	1.05 shift z 10 1.05
Balancing ...
Unused restart file global fix info:
  fix style: STORE, fix ID: msd_COMPUTE_STORE
Unused restart file peratom fix info:
  fix style: STORE, fix ID: bin1_COMPUTE_STORE
  fix style: STORE, fix ID: bin3_COMPUTE_STORE
Neighbor list info ...
  update every 1 steps, delay 10 steps, check yes
  max neighbors/atom: 2000, page size: 100000
  master list distance cutoff = 2.9
  ghost atom cutoff = 6.95
  binsize = 1.45, bins = 56 56 111
  1 neighbor lists, perpetual/occasional/extra = 1 0 0
  (1) pair lj/cut/opt, perpetual
      attributes: half, newton on
      pair build: half/bin/newton
      stencil: half/bin/3d/newton
      bin: standard
 rebalancing time: 0.012 seconds
  iteration count = 4
  initial/final maximal load/proc = 6564.0000 5270.0000
  initial/final imbalance factor  = 1.6560206 1.3295595
  x cuts: 0.0000000 0.25 0.5 0.75 1.0000000
  y cuts: 0.0000000 0.25 0.5 0.75 1.0000000
  z cuts: 0.0000000 0.1015625 0.1796875 0.2734375 0.359375 0.453125 0.515625 0.6171875 1.0000000

####################### WALLS ###########################

variable       epsilonWall equal 2*${epsilon}
variable       epsilonWall equal 2*1
variable       repulsive   equal   0.7147*${sigma}
variable       repulsive   equal   0.7147*1
variable       full	   equal   3*${sigma}
variable       full	   equal   3*1
region         lowWall block EDGE EDGE EDGE EDGE EDGE 2

fix            topWall all wall/lj93 zhi EDGE 	       ${epsilonWall} ${sigma} ${repulsive} units box
fix            topWall all wall/lj93 zhi EDGE 	       2 ${sigma} ${repulsive} units box
fix            topWall all wall/lj93 zhi EDGE 	       2 1 ${repulsive} units box
fix            topWall all wall/lj93 zhi EDGE 	       2 1 0.7147 units box
fix            lowSol solvent wall/lj93 zlo EDGE                ${epsilonWall} ${sigma} ${full} units box
fix            lowSol solvent wall/lj93 zlo EDGE                2 ${sigma} ${full} units box
fix            lowSol solvent wall/lj93 zlo EDGE                2 1 ${full} units box
fix            lowSol solvent wall/lj93 zlo EDGE                2 1 3 units box
fix 	       lowCub cubes wall/lj93 zlo EDGE                ${epsilonWall} ${sigma} ${repulsive} units box
fix 	       lowCub cubes wall/lj93 zlo EDGE                2 ${sigma} ${repulsive} units box
fix 	       lowCub cubes wall/lj93 zlo EDGE                2 1 ${repulsive} units box
fix 	       lowCub cubes wall/lj93 zlo EDGE                2 1 0.7147 units box


###################### COMPUTES ##########################

compute        bin1 solvent chunk/atom bin/1d z lower 1.0 units box
compute        bin3 solvent chunk/atom bin/3d x lower 5.0 y lower 5.0 z lower 5.0 units box

compute 	pe solvent 	   pe/atom
compute 	pe2 all 	   pe/atom

######################  FIXES ############################


fix             peclet solvent ave/chunk 10 10 10000 bin1 density/number norm                  none ave one file density.profile

fix              temp solvent ave/chunk 10 10 10000 bin1 temp norm                  none ave one file temp.profile

fix 		 dens solvent ave/chunk 10 10 500000 bin3 density/number norm 		 none ave one file dens3.profile

fix		 temp2 solvent ave/chunk 10 10 500000 bin3 temp norm none ave one file temp3.profile

fix 		pe solvent ave/chunk 1 1 500000 bin3 c_pe norm none ave one file pe3.profile



################### INTEGRATION

fix             1 cubes rigid/nve/small molecule
  create bodies CPU = 0.011 seconds
  175 rigid bodies with 200025 atoms
  6.9282032 = max distance from body owner to body atom

fix             2 solvent nve



## Thermostat
region          regthermo block EDGE EDGE EDGE EDGE 0 15
group           thermo dynamic solvent region regthermo every 1000
dynamic group thermo defined
fix             3 thermo langevin ${temp} ${temp} 10 156453
fix             3 thermo langevin 1.0 ${temp} 10 156453
fix             3 thermo langevin 1.0 1.0 10 156453

## Evaporation
region		regevap block EDGE EDGE EDGE EDGE 140 EDGE
fix 		4 solvent evaporate ${evap} 1 regevap 156415
fix 		4 solvent evaporate 85 1 regevap 156415


#### Load balancing

fix             bal all balance 1000 1.05 shift z 10 1.05

############### Diagnostics and computes ###################

compute        	com cubes          rigid/local   1 mol x y z
compute        	quat cubes         rigid/local   1 mol quatw quati quatj quatk

compute 	cc2 cubes 	   chunk/atom 	 molecule
compute 	msd cubes 	   msd/chunk 	 cc2

fix 		msd all ave/time  1 1 10000 c_msd[*] file dump.msd ave one mode vector

dump            1 all custom 500000 dump.lammpstrj id mol type x y z vx vy vz c_pe2
dump		sol  solvent custom 500000 dump.soltrj id x y z vx vy vz c_pe
dump		cubetrj cubes custom 500000 cubes.lammpstrj id mol type x y z vx vy vz
dump            com cubes local 500000 dump.*.xyz c_com[*]
dump	        xyz hull xyz 500000 cubes.xyz
#dump            quat cubes      local 100000 dump.*.quat c_quat[*]
dump		order cubes 	local 100000 dump.*.order c_com[*] c_quat[*]
#dump		mol cubes molfile 10000 mol.xyz xyz


dump            2 all image 100000 image.*.png type type zoom 1.5 size 1280 720
dump_modify     2 pad 8
dump		image cubes image 100000 image_cubes.*.png type type zoom 1.5 size 1280 720
dump_modify	image pad 8
dump            3 all movie 5000 movie.avi type type zoom 1.5 size 1280 720
dump		4 cubes movie 5000 movie_cubes.avi type type size 1280 720


thermo          1000
thermo_style    custom step temp epair evdwl etotal press pe ke atoms

restart         1000000 restart.dat
timestep        0.005
timer           full
New timer settings: style=full  mode=nosync  timeout=off

run 		${steps}
run 		30000000
Per MPI rank memory allocation (min/avg/max) = 22.41 | 26.40 | 27.94 Mbytes
Step Temp E_pair E_vdwl TotEng Press PotEng KinEng Atoms 
       0    1.0106626   -2.1218687   -2.1218687   -1.2025123  0.078364293   -2.1218687   0.91935644   507356 
    1000    1.0108883   -2.1223763   -2.1223763   -1.2027946  0.070202812   -2.1223763   0.91958171   507345 
    2000    1.0077734    -2.120844    -2.120844   -1.2040742  0.063459629    -2.120844   0.91676983   507333 
    3000    1.0079953   -2.1211567   -2.1211567   -1.2041634  0.072186384   -2.1211567   0.91699333   507321 
    4000    1.0112689   -2.1230565   -2.1230565   -1.2030634  0.075445448   -2.1230565   0.91999318   507309 
    5000    1.0098764   -2.1221884   -2.1221884    -1.203442  0.070569751   -2.1221884   0.91874632   507298 
    6000    1.0101045   -2.1227729   -2.1227729   -1.2037974   0.07271841   -2.1227729   0.91897552   507286 
    7000    1.0073423   -2.1212185   -2.1212185   -1.2047343  0.069023939   -2.1212185   0.91648421   507274 
    8000    1.0074819   -2.1216381   -2.1216381   -1.2050052  0.071999033   -2.1216381   0.91663288   507262 
    9000    1.0088156   -2.1226285   -2.1226285   -1.2047622  0.080984422   -2.1226285   0.91786629   507251 
   10000    1.0096323   -2.1227396   -2.1227396   -1.2041085  0.070570168   -2.1227396   0.91863107   507239 
   11000    1.0086628   -2.1224163   -2.1224163   -1.2046457  0.070811751   -2.1224163   0.91777062   507227 
   12000    1.0085336   -2.1224964   -2.1224964   -1.2048216  0.074815993   -2.1224964   0.91767484   507215 
   13000    1.0084899   -2.1221561   -2.1221561   -1.2045012  0.070484183   -2.1221561    0.9176549   507204 
   14000    1.0078066    -2.122096    -2.122096    -1.205041  0.075577454    -2.122096   0.91705492   507192 
   15000    1.0084487   -2.1236261   -2.1236261   -1.2059652  0.074897858   -2.1236261    0.9176609   507180 
   16000    1.0083158   -2.1240203   -2.1240203   -1.2064586  0.070434319   -2.1240203   0.91756168   507168 
   17000    1.0073125   -2.1230505   -2.1230505   -1.2063802  0.064607682   -2.1230505    0.9166703   507156 
   18000    1.0056972   -2.1222581   -2.1222581   -1.2070379   0.07448231   -2.1222581   0.91522022   507145 
   19000    1.0061177   -2.1235631   -2.1235631   -1.2079385  0.064140574   -2.1235631    0.9156246   507133 
   20000    1.0055403   -2.1234853   -2.1234853   -1.2083645  0.072104597   -2.1234853   0.91512073   507121 
   21000    1.0045773   -2.1230043   -2.1230043   -1.2087383  0.071620378   -2.1230043   0.91426598   507109 
   22000    1.0052455    -2.122594    -2.122594      -1.2077  0.066198425    -2.122594   0.91489396   507098 
   23000     1.006141   -2.1224618   -2.1224618   -1.2067312  0.071830466   -2.1224618   0.91573064   507086 
   24000    1.0065254   -2.1232914   -2.1232914   -1.2071892  0.067840929   -2.1232914   0.91610223   507074 
   25000     1.008111   -2.1249001   -2.1249001   -1.2073331  0.077004347   -2.1249001   0.91756706   507062 
   26000    1.0086686   -2.1247405   -2.1247405    -1.206646  0.072181803   -2.1247405    0.9180945   507051 
   27000    1.0102363   -2.1260174   -2.1260174   -1.2064742  0.069867807   -2.1260174   0.91954318   507039 
   28000    1.0072645   -2.1238934   -2.1238934   -1.2070335  0.075458018   -2.1238934    0.9168599   507027 
   29000    1.0079277   -2.1248856   -2.1248856   -1.2074004  0.081092665   -2.1248856   0.91748523   507015 
   30000    1.0074945   -2.1250119   -2.1250119   -1.2079011  0.065679019   -2.1250119   0.91711085   507004 
   31000    1.0082817   -2.1255057   -2.1255057   -1.2076566  0.062392356   -2.1255057   0.91784916   506992 
   32000     1.007526   -2.1253925   -2.1253925   -1.2082095  0.078968582   -2.1253925   0.91718294   506980 
   33000    1.0063611   -2.1240636   -2.1240636   -1.2079195  0.062415504   -2.1240636   0.91614416   506968 
   34000    1.0057647   -2.1251584   -2.1251584   -1.2095355  0.067687642   -2.1251584   0.91562293   506956 
   35000    1.0061855   -2.1258784   -2.1258784   -1.2098525  0.066654077   -2.1258784   0.91602587   506945 
   36000    1.0044509   -2.1241162   -2.1241162   -1.2096479  0.067193931   -2.1241162   0.91446834   506933 
   37000    1.0060274   -2.1234436   -2.1234436   -1.2075183  0.078327139   -2.1234436   0.91592532   506921 
   38000    1.0078617   -2.1250439   -2.1250439   -1.2074269  0.072472093   -2.1250439   0.91761702   506909 
   39000    1.0066098   -2.1239152   -2.1239152   -1.2074181  0.071083441   -2.1239152   0.91649712   506898 
   40000    1.0069526   -2.1236002   -2.1236002   -1.2067693  0.068286888   -2.1236002   0.91683095   506886 
   41000    1.0066248   -2.1228779   -2.1228779   -1.2063237   0.06554688   -2.1228779   0.91655416   506874 
   42000    1.0049677   -2.1222328   -2.1222328   -1.2071658  0.081645102   -2.1222328   0.91506697   506862 
   43000    1.0062848   -2.1237648   -2.1237648   -1.2074786  0.070976593   -2.1237648   0.91628621   506851 
   44000    1.0044018   -2.1212472   -2.1212472    -1.206654  0.068576368   -2.1212472   0.91459325   506839 
   45000    1.0067539   -2.1235059   -2.1235059   -1.2067491  0.056614194   -2.1235059   0.91675674   506827 
   46000    1.0087086   -2.1241805   -2.1241805    -1.205622  0.070834469   -2.1241805   0.91855848   506815 
   47000    1.0078468   -2.1230165   -2.1230165    -1.205223   0.06861592   -2.1230165   0.91779356   506804 
   48000    1.0060179   -2.1221567   -2.1221567    -1.206007   0.07962943   -2.1221567   0.91614976   506792 
   49000    1.0081057   -2.1238351   -2.1238351   -1.2057624  0.055736174   -2.1238351   0.91807278   506780 
   50000    1.0057063   -2.1213829   -2.1213829   -1.2054735  0.069664951   -2.1213829   0.91590939   506768 
   51000    1.0058255   -2.1219831   -2.1219831   -1.2059434  0.075344743   -2.1219831   0.91603963   506756 
   52000    1.0040372   -2.1209928   -2.1209928    -1.206562  0.064384273   -2.1209928   0.91443081   506745 
   53000    1.0059836   -2.1233814   -2.1233814   -1.2071562  0.055313459   -2.1233814   0.91622519   506733 
   54000    1.0050527   -2.1226817   -2.1226817   -1.2072826  0.082402879   -2.1226817    0.9153991   506721 
   55000    1.0050119   -2.1224133   -2.1224133   -1.2070297   0.06402708   -2.1224133    0.9153836   506709 
   56000    1.0035063   -2.1222904   -2.1222904   -1.2082583  0.073370143   -2.1222904   0.91403205   506698 
   57000    1.0057325   -2.1236876   -2.1236876   -1.2076061  0.074510263   -2.1236876   0.91608149   506686 
   58000    1.0037652   -2.1219271   -2.1219271   -1.2076158  0.063898847   -2.1219271   0.91431124   506674 
   59000    1.0058112   -2.1234856   -2.1234856    -1.207289  0.061625615   -2.1234856   0.91619658   506662 
   60000    1.0064119   -2.1233928   -2.1233928   -1.2066292   0.06827641   -2.1233928   0.91676363   506651 
   61000    1.0064406   -2.1243515   -2.1243515     -1.20754  0.067672374   -2.1243515   0.91681147   506639 
   62000    1.0061748   -2.1238733   -2.1238733   -1.2072822  0.076163779   -2.1238733    0.9165911   506627 
   63000    1.0060089   -2.1243982   -2.1243982   -1.2079366  0.072238448   -2.1243982   0.91646163   506615 
   64000    1.0064797   -2.1242498   -2.1242498   -1.2073393  0.067736655   -2.1242498    0.9169105   506604 
   65000    1.0051191   -2.1246405   -2.1246405   -1.2089478  0.076717181   -2.1246405   0.91569263   506592 
   66000    1.0053348   -2.1245082   -2.1245082   -1.2085974  0.078622343   -2.1245082    0.9159108   506580 
   67000    1.0043803   -2.1241654   -2.1241654   -1.2091025  0.071454983   -2.1241654   0.91506289   506568 
   68000    1.0038954   -2.1252379   -2.1252379   -1.2105952  0.073036843   -2.1252379   0.91464277   506556 
   69000    1.0066018   -2.1266434   -2.1266434   -1.2095149  0.065732724   -2.1266434   0.91712847   506545 
   70000    1.0070844   -2.1265382   -2.1265382   -1.2089482  0.077558179   -2.1265382   0.91758999   506533 
   71000    1.0058129    -2.125917    -2.125917   -1.2094639  0.070305458    -2.125917   0.91645313   506521 
   72000    1.0050551   -2.1261982   -2.1261982   -1.2104138  0.067551644   -2.1261982    0.9157844   506509 
   73000    1.0035426   -2.1244172   -2.1244172   -1.2099911   0.06853702   -2.1244172   0.91442605   506498 
   74000    1.0055408   -2.1253312   -2.1253312   -1.2090627  0.062120204   -2.1253312   0.91626851   506486 
   75000    1.0042069   -2.1245911   -2.1245911   -1.2095163  0.064794977   -2.1245911   0.91507474   506474 
   76000    1.0038767   -2.1243466   -2.1243466   -1.2095511  0.070987892   -2.1243466   0.91479555   506462 
   77000    1.0061126   -2.1240142   -2.1240142   -1.2071612  0.070338418   -2.1240142   0.91685296   506451 
   78000    1.0057926   -2.1231415   -2.1231415   -1.2065585  0.076991015   -2.1231415   0.91658306   506439 
   79000    1.0066296    -2.124892    -2.124892   -1.2075245  0.067737266    -2.124892   0.91736757   506427 
   80000    1.0066526   -2.1252655   -2.1252655   -1.2078553  0.065063886   -2.1252655   0.91741022   506415 
   81000    1.0055908   -2.1246483   -2.1246483   -1.2081859  0.068827775   -2.1246483   0.91646248   506404 
   82000    1.0056651   -2.1246655   -2.1246655   -1.2081137  0.069849124   -2.1246655   0.91655188   506392 
   83000    1.0065636   -2.1249076   -2.1249076    -1.207515  0.055932073   -2.1249076   0.91739252   506380 
   84000    1.0034514   -2.1211869   -2.1211869   -1.2066092  0.065150594   -2.1211869   0.91457768   506368 
   85000    1.0070903   -2.1246196   -2.1246196   -1.2067035  0.060918664   -2.1246196   0.91791611   506356 
   86000    1.0061677   -2.1241036   -2.1241036   -1.2070085  0.067404687   -2.1241036   0.91709509   506345 
   87000    1.0048886   -2.1227479   -2.1227479   -1.2067969  0.068580798   -2.1227479   0.91595098   506333 
   88000    1.0055505   -2.1227331   -2.1227331   -1.2061571   0.07933264   -2.1227331   0.91657598   506321 
   89000    1.0051877   -2.1225523   -2.1225523   -1.2062852  0.074382344   -2.1225523   0.91626704   506309 
   90000    1.0044481   -2.1216464   -2.1216464   -1.2060336  0.067504252   -2.1216464   0.91561274   506298 
   91000    1.0039495   -2.1206077   -2.1206077   -1.2054277  0.076237923   -2.1206077   0.91517991   506286 
   92000    1.0051632   -2.1223204   -2.1223204   -1.2060124   0.07957306   -2.1223204     0.916308   506274 
   93000    1.0063584   -2.1237764   -2.1237764    -1.206357  0.066083273   -2.1237764   0.91741932   506262 
   94000    1.0062025   -2.1235072   -2.1235072   -1.2062101  0.066882584   -2.1235072   0.91729713   506251 
   95000    1.0027285   -2.1211321   -2.1211321   -1.2069804  0.068602564   -2.1211321   0.91415172   506239 
   96000    1.0025111    -2.121454    -2.121454   -1.2074788  0.073977951    -2.121454   0.91397519   506227 
   97000    1.0018783   -2.1210916   -2.1210916   -1.2076717  0.073448455   -2.1210916   0.91341998   506215 
   98000    1.0045733    -2.123918    -2.123918   -1.2080212  0.063813314    -2.123918   0.91589685   506204 
   99000    1.0027792     -2.12247     -2.12247   -1.2081871   0.06992764     -2.12247   0.91428287   506192 
  100000    1.0047249   -2.1234219   -2.1234219   -1.2073434  0.064864763   -2.1234219   0.91607853   506180 
  101000    1.0041965   -2.1231612   -2.1231612   -1.2075427  0.070463376   -2.1231612   0.91561851   506168 
  102000    1.0041578   -2.1235659   -2.1235659    -1.207961  0.069138168   -2.1235659    0.9156049   506156 
  103000    1.0029042    -2.122467    -2.122467   -1.2079853  0.071907957    -2.122467   0.91448168   506145 
  104000    1.0049769   -2.1239516   -2.1239516   -1.2075582  0.069222909   -2.1239516   0.91639338   506133 
  105000    1.0032288   -2.1225968   -2.1225968   -1.2077757  0.069968334   -2.1225968   0.91482103   506121 
  106000    1.0046216   -2.1239045   -2.1239045   -1.2077917  0.066718338   -2.1239045   0.91611288   506109 
  107000    1.0046348   -2.1231721   -2.1231721   -1.2070273  0.074670715   -2.1231721   0.91614481   506098 
  108000    1.0059506   -2.1245083   -2.1245083   -1.2071418  0.072393144   -2.1245083    0.9173665   506086 
  109000    1.0042163   -2.1243219   -2.1243219   -1.2085153  0.071058098   -2.1243219   0.91580661   506074 
  110000    1.0028872    -2.124066    -2.124066   -1.2094498  0.072729964    -2.124066   0.91461619   506062 
  111000    1.0045031   -2.1245143   -2.1245143   -1.2084045  0.073070269   -2.1245143   0.91610981   506051 
  112000    1.0055007   -2.1263006   -2.1263006   -1.2092593  0.064187246   -2.1263006    0.9170413   506039 
  113000    1.0036983   -2.1249946   -2.1249946   -1.2095754  0.072715869   -2.1249946   0.91541921   506027 
  114000    1.0032032   -2.1251247   -2.1251247   -1.2101354  0.070469717   -2.1251247   0.91498933   506015 
  115000    1.0034522   -2.1251118   -2.1251118   -1.2098754  0.072571726   -2.1251118   0.91523639   506004 
  116000    1.0028265   -2.1251731   -2.1251731   -1.2104857  0.069390649   -2.1251731   0.91468738   505992 
  117000    1.0027656   -2.1247634   -2.1247634   -1.2101099  0.059223775   -2.1247634   0.91465349   505980 
  118000     1.003383   -2.1251225   -2.1251225   -1.2098841  0.073992176   -2.1251225   0.91523838   505968 
  119000    1.0023587   -2.1243231   -2.1243231   -1.2099973  0.061259539   -2.1243231   0.91432576   505956 
  120000    1.0008544   -2.1241177   -2.1241177   -1.2111443  0.069709672   -2.1241177   0.91297342   505945 
  121000    1.0023479   -2.1252709   -2.1252709   -1.2109135     0.059223   -2.1252709   0.91435746   505933 
  122000    1.0015449   -2.1250643   -2.1250643   -1.2114176  0.065017808   -2.1250643   0.91364663   505921 
  123000    1.0033814   -2.1270037   -2.1270037     -1.21166  0.065652432   -2.1270037   0.91534366   505909 
  124000    1.0022505   -2.1265678   -2.1265678    -1.212236  0.065886686   -2.1265678   0.91433182   505898 
  125000    1.0009928   -2.1270332   -2.1270332    -1.213827  0.063232235   -2.1270332   0.91320616   505886 
  126000    1.0026941   -2.1277659   -2.1277659    -1.212986  0.061873191   -2.1277659    0.9147799   505874 
  127000    1.0010132   -2.1260639   -2.1260639   -1.2127958  0.074749349   -2.1260639    0.9132681   505862 
  128000    1.0036223   -2.1279459   -2.1279459   -1.2122776  0.065697702   -2.1279459   0.91566837   505851 
  129000    1.0046443   -2.1283531   -2.1283531   -1.2117306  0.078782091   -2.1283531   0.91662259   505839 
  130000    1.0066183   -2.1297921   -2.1297921   -1.2113467  0.074011565   -2.1297921   0.91844542   505827 
  131000      1.00394   -2.1278376   -2.1278376   -1.2118142  0.066351906   -2.1278376   0.91602343   505815 
  132000    1.0036059   -2.1282097   -2.1282097   -1.2124712   0.06845618   -2.1282097   0.91573853   505804 
  133000    1.0053847   -2.1299992   -2.1299992   -1.2126159   0.06649933   -2.1299992    0.9173833   505792 
  134000    1.0039767   -2.1286545   -2.1286545   -1.2125342  0.069849051   -2.1286545   0.91612026   505780 
  135000    1.0022565    -2.127269    -2.127269   -1.2126966   0.06809086    -2.127269   0.91457234   505768 
  136000    1.0040117   -2.1295946   -2.1295946   -1.2133989  0.059874393   -2.1295946   0.91619575   505756 
  137000     1.002137   -2.1280684   -2.1280684   -1.2135635  0.068223959   -2.1280684   0.91450492   505745 
  138000    1.0026806   -2.1283715   -2.1283715   -1.2133489  0.057065543   -2.1283715   0.91502263   505733 
  139000    1.0007249   -2.1269584   -2.1269584   -1.2136987  0.069118086   -2.1269584   0.91325963   505721 
  140000    1.0029404   -2.1285021   -2.1285021    -1.213199  0.075023783   -2.1285021   0.91530319   505709 
  141000    1.0035605   -2.1281837   -2.1281837   -1.2122947  0.065107562   -2.1281837   0.91588902   505698 
  142000    1.0026824   -2.1271174   -2.1271174   -1.2120081  0.067638263   -2.1271174   0.91510929   505686 
  143000    1.0048864   -2.1275567   -2.1275567   -1.2104141  0.072003537   -2.1275567   0.91714261   505674 
  144000    1.0049177   -2.1274524   -2.1274524   -1.2102595  0.061076746   -2.1274524   0.91719297   505662 
  145000    1.0033503   -2.1254337   -2.1254337   -1.2096514  0.076328424   -2.1254337   0.91578228   505651 
  146000    1.0034158   -2.1257777   -2.1257777    -1.209914  0.068791157   -2.1257777   0.91586378   505639 
  147000     1.003304   -2.1271197   -2.1271197   -1.2113361  0.078486398   -2.1271197   0.91578353   505627 
  148000    1.0025456   -2.1259778   -2.1259778   -1.2108649  0.073331245   -2.1259778   0.91511293   505615 
  149000    1.0014502   -2.1253908   -2.1253908   -1.2112578  0.063600618   -2.1253908   0.91413302   505604 
  150000   0.99874555   -2.1236312   -2.1236312   -1.2119454  0.063291808   -2.1236312    0.9116858   505592 
  151000   0.99912615   -2.1244516   -2.1244516   -1.2123968  0.064494281   -2.1244516   0.91205487   505580 
  152000    1.0023128   -2.1263619   -2.1263619   -1.2113764  0.069922307   -2.1263619   0.91498551   505568 
  153000    1.0028279   -2.1262925   -2.1262925    -1.210815  0.067318634   -2.1262925    0.9154775   505556 
  154000    1.0013737   -2.1245675   -2.1245675   -1.2103977  0.070052486   -2.1245675   0.91416981   505545 
  155000     1.001516   -2.1249945   -2.1249945    -1.210673   0.06214133   -2.1249945   0.91432141   505533 
  156000      1.00115   -2.1242545   -2.1242545   -1.2102455  0.062957411   -2.1242545   0.91400903   505521 
  157000    1.0016682    -2.124653    -2.124653   -1.2101492  0.066998495    -2.124653   0.91450382   505509 
  158000    1.0030581   -2.1262961   -2.1262961   -1.2105034  0.062997787   -2.1262961   0.91579268   505498 
  159000    1.0007987   -2.1240264   -2.1240264   -1.2102749  0.058577309   -2.1240264   0.91375152   505486 
  160000    1.0024297   -2.1249861   -2.1249861   -1.2097236  0.069882843   -2.1249861   0.91526246   505474 
  161000    1.0017511   -2.1240431   -2.1240431   -1.2093785  0.066126822   -2.1240431   0.91466457   505462 
  162000    1.0018599   -2.1235821   -2.1235821   -1.2087983  0.066370942   -2.1235821   0.91478377   505451 
  163000    1.0030023   -2.1256358   -2.1256358   -1.2097872  0.063348768   -2.1256358   0.91584862   505439 
  164000    1.0015752   -2.1244518   -2.1244518   -1.2098845   0.07793482   -2.1244518    0.9145673   505427 
  165000    1.0036236   -2.1261527   -2.1261527   -1.2096933  0.067504496   -2.1261527   0.91645943   505415 
  166000    1.0029218   -2.1251733   -2.1251733   -1.2093347  0.066924009   -2.1251733    0.9158386   505404 
  167000     1.003178   -2.1260779   -2.1260779   -1.2099836  0.067298684   -2.1260779    0.9160943   505392 
  168000    1.0025671   -2.1253363   -2.1253363   -1.2097782  0.071271217   -2.1253363   0.91555814   505380 
  169000    1.0020354   -2.1254355   -2.1254355   -1.2103412  0.069017495   -2.1254355   0.91509432   505368 
  170000    1.0022007   -2.1257942   -2.1257942   -1.2105272  0.063251044   -2.1257942   0.91526702   505356 
  171000    1.0030514   -2.1268123   -2.1268123   -1.2107485  0.060222763   -2.1268123   0.91606385   505345 
  172000    1.0025462   -2.1267227   -2.1267227   -1.2110984  0.073038116   -2.1267227   0.91562422   505333 
  173000    1.0021091   -2.1264954   -2.1264954   -1.2112487  0.069703306   -2.1264954   0.91524671   505321 
  174000      1.00361   -2.1267325   -2.1267325   -1.2100931  0.069642275   -2.1267325   0.91663933   505309 
  175000    1.0049798   -2.1277146   -2.1277146   -1.2098042     0.053717   -2.1277146   0.91791036   505298 
  176000    1.0029812   -2.1282599   -2.1282599   -1.2121533  0.077659764   -2.1282599   0.91610667   505286 
  177000    1.0023715   -2.1266815   -2.1266815     -1.21111  0.067823545   -2.1266815   0.91557156   505274 
  178000    1.0009325   -2.1255995   -2.1255995   -1.2113206  0.065333422   -2.1255995   0.91427887   505262 
  179000    1.0009924   -2.1253552   -2.1253552   -1.2110017  0.078622777   -2.1253552    0.9143535   505251 
  180000   0.99945371   -2.1247858   -2.1247858   -1.2118162  0.073755781   -2.1247858   0.91296966   505239 
  181000   0.99973576   -2.1254954   -2.1254954   -1.2122465  0.066673955   -2.1254954   0.91324899   505227 
  182000    1.0006161    -2.125906    -2.125906   -1.2118311  0.058051274    -2.125906   0.91407485   505215 
  183000   0.99808655   -2.1242074   -2.1242074   -1.2124234  0.067636455   -2.1242074   0.91178396   505204 
  184000    1.0004479   -2.1249688   -2.1249688    -1.211006  0.068025176   -2.1249688    0.9139628   505192 
  185000   0.99965895   -2.1242326   -2.1242326   -1.2109689  0.070819291   -2.1242326   0.91326378   505180 
  186000   0.99972862   -2.1252154   -2.1252154   -1.2118662  0.069421595   -2.1252154   0.91334913   505168 
  187000    1.0004446   -2.1239671   -2.1239671   -1.2099422  0.067607443   -2.1239671   0.91402495   505156 
  188000    1.0018535   -2.1258035   -2.1258035   -1.2104715  0.068028426   -2.1258035   0.91533209   505145 
  189000     1.001509   -2.1248673   -2.1248673   -1.2098283  0.069337246   -2.1248673   0.91503907   505133 
  190000    1.0012895   -2.1244771   -2.1244771   -1.2096168  0.062976035   -2.1244771   0.91486025   505121 
  191000   0.99913824   -2.1227787   -2.1227787   -1.2098624  0.069402013   -2.1227787   0.91291638   505109 
  192000    1.0010386    -2.124748    -2.124748   -1.2100754  0.071125258    -2.124748   0.91467264   505098 
  193000     1.000285   -2.1237775   -2.1237775   -1.2097716  0.071998396   -2.1237775   0.91400582   505086 
  194000    1.0001747   -2.1240337   -2.1240337   -1.2101069  0.063900532   -2.1240337   0.91392672   505074 
  195000   0.99784906   -2.1228052   -2.1228052   -1.2109819  0.066475642   -2.1228052   0.91182329   505062 
  196000   0.99742376   -2.1213754   -2.1213754   -1.2099209  0.067185979   -2.1213754   0.91145451   505051 
  197000   0.99614649   -2.1213023   -2.1213023   -1.2109934  0.083088112   -2.1213023   0.91030896   505039 
  198000   0.99787278   -2.1223309   -2.1223309   -1.2104227  0.068792286   -2.1223309   0.91190817   505027 
  199000   0.99883093   -2.1228098   -2.1228098   -1.2100044    0.0512628   -2.1228098   0.91280546   505015 
  200000    1.0021566   -2.1261227   -2.1261227    -1.210258  0.070530376   -2.1261227   0.91586463   505004 
  201000    1.0014198   -2.1249998   -2.1249998   -1.2097867  0.071279388   -2.1249998   0.91521308   504992 
  202000    1.0011335    -2.125227    -2.125227   -1.2102538  0.062298511    -2.125227   0.91497314   504980 
  203000    1.0015151   -2.1256708   -2.1256708   -1.2103272   0.06822006   -2.1256708    0.9153436   504968 
  204000   0.99728219   -2.1220758   -2.1220758   -1.2105792  0.073707132   -2.1220758    0.9114966   504956 
  205000   0.99924384   -2.1235963   -2.1235963   -1.2102869  0.064734613   -2.1235963    0.9133094   504945 
  206000   0.99945889    -2.124869    -2.124869   -1.2113414  0.074150658    -2.124869   0.91352767   504933 
  207000   0.99946013   -2.1256529   -2.1256529   -1.2121024  0.083301797   -2.1256529   0.91355052   504921 
  208000   0.99911572   -2.1249254   -2.1249254   -1.2116679  0.076534944   -2.1249254   0.91325741   504909 
  209000   0.99877438   -2.1254701   -2.1254701   -1.2125048  0.066486703   -2.1254701   0.91296529   504898 
  210000    0.9982698   -2.1263021   -2.1263021   -1.2137764  0.066461356   -2.1263021   0.91252576   504886 
  211000   0.99812069   -2.1260616   -2.1260616   -1.2136505   0.06597608   -2.1260616   0.91241114   504874 
  212000    1.0002949   -2.1273971   -2.1273971   -1.2129768   0.06584991   -2.1273971   0.91442037   504862 
  213000   0.99864544   -2.1271381   -2.1271381   -1.2142057  0.065315835   -2.1271381   0.91293242   504851 
  214000   0.99779763   -2.1268061   -2.1268061    -1.214627  0.062003617   -2.1268061   0.91217906   504839 
  215000    0.9972962   -2.1270643   -2.1270643    -1.215322  0.067946173   -2.1270643   0.91174232   504827 
  216000   0.99793154   -2.1268307   -2.1268307   -1.2144859  0.075398327   -2.1268307   0.91234485   504815 
  217000   0.99886238   -2.1282899   -2.1282899   -1.2150742  0.073510753   -2.1282899   0.91321576   504804 
  218000   0.99863237    -2.127664    -2.127664   -1.2146368  0.063836332    -2.127664   0.91302717   504792 
  219000    0.9985645   -2.1272176   -2.1272176   -1.2142308  0.071664043   -2.1272176   0.91298682   504780 
  220000   0.99808635   -2.1276727   -2.1276727   -1.2151013  0.070700939   -2.1276727   0.91257134   504768 
  221000   0.99782637   -2.1292535   -2.1292535   -1.2168981  0.070052818   -2.1292535   0.91235533   504756 
  222000   0.99961923   -2.1301497   -2.1301497   -1.2161351  0.067982941   -2.1301497   0.91401454   504745 
  223000   0.99871133    -2.128934    -2.128934   -1.2157279  0.061216703    -2.128934    0.9132061   504733 
  224000   0.99770284   -2.1291026   -2.1291026    -1.216797  0.069111374   -2.1291026   0.91230564   504721 
  225000   0.99720633   -2.1288067   -2.1288067   -1.2169334  0.056770744   -2.1288067   0.91187331   504709 
  226000   0.99749272   -2.1287096   -2.1287096   -1.2165546  0.062823933   -2.1287096   0.91215507   504698 
  227000   0.99787328   -2.1288167   -2.1288167   -1.2162919  0.072732268   -2.1288167   0.91252477   504686 
  228000   0.99846914   -2.1295151   -2.1295151   -1.2164237  0.068661703   -2.1295151   0.91309137   504674 
  229000   0.99761568   -2.1283904   -2.1283904   -1.2160578  0.075128987   -2.1283904   0.91233259   504662 
  230000    1.0005298    -2.130437    -2.130437   -1.2154195  0.072204676    -2.130437   0.91501751   504651 
  231000    1.0000391   -2.1289479   -2.1289479   -1.2143573  0.076482273   -2.1289479   0.91459053   504639 
  232000   0.99788642    -2.126897    -2.126897   -1.2142536  0.074769933    -2.126897   0.91264348   504627 
  233000   0.99815994   -2.1271611   -2.1271611   -1.2142457  0.070161921   -2.1271611   0.91291535   504615 
  234000   0.99894647   -2.1276343   -2.1276343   -1.2139797  0.083114564   -2.1276343   0.91365462   504604 
  235000    1.0006708   -2.1282034   -2.1282034   -1.2129499   0.06833265   -2.1282034   0.91525352   504592 
  236000   0.99871319   -2.1257451   -2.1257451   -1.2122604  0.079450421   -2.1257451    0.9134847   504580 
  237000   0.99745375   -2.1254893   -2.1254893   -1.2131349   0.06725535   -2.1254893   0.91235444   504568 
  238000   0.99683535   -2.1246429   -2.1246429   -1.2128324  0.069233627   -2.1246429   0.91181049   504556 
  239000   0.99711969   -2.1250226   -2.1250226   -1.2129321  0.065340846   -2.1250226   0.91209045   504545 
  240000   0.99775286   -2.1245458   -2.1245458   -1.2118544  0.066465307   -2.1245458   0.91269134   504533 
  241000   0.99954765   -2.1259959   -2.1259959   -1.2116411  0.061284035   -2.1259959   0.91435486   504521 
  242000   0.99877928   -2.1254781   -2.1254781   -1.2118044  0.056442465   -2.1254781   0.91367372   504509 
  243000   0.99575264   -2.1229869   -2.1229869   -1.2120621  0.067609655   -2.1229869   0.91092483   504498 
  244000   0.99709801   -2.1242454   -2.1242454   -1.2120681  0.072978411   -2.1242454   0.91217729   504486 
  245000   0.99866003   -2.1254058   -2.1254058   -1.2117778  0.059594909   -2.1254058   0.91362801   504474 
  246000   0.99692091   -2.1236097   -2.1236097    -1.211551   0.06450016   -2.1236097   0.91205867   504462 
  247000   0.99778394   -2.1241303   -2.1241303   -1.2112622  0.065795766   -2.1241303   0.91286813   504451 
  248000   0.99755894   -2.1238905   -2.1238905   -1.2112065  0.062324401   -2.1238905     0.912684   504439 
  249000   0.99807837   -2.1237131   -2.1237131   -1.2105321  0.067267142   -2.1237131   0.91318095   504427 
  250000   0.99925395   -2.1243329   -2.1243329   -1.2100547  0.056972933   -2.1243329   0.91427829   504415 
  251000   0.99814548   -2.1232043   -2.1232043   -1.2099203   0.05441008   -2.1232043     0.913284   504404 
  252000    1.0001006   -2.1237569   -2.1237569   -1.2086622  0.065905011   -2.1237569   0.91509465   504392 
  253000     1.000468   -2.1234488   -2.1234488   -1.2079962  0.070422202   -2.1234488   0.91545258   504380 
  254000   0.99863456   -2.1224852   -2.1224852   -1.2086885  0.067870214   -2.1224852   0.91379672   504368 
  255000    1.0003974   -2.1239821   -2.1239821   -1.2085505  0.067059528   -2.1239821    0.9154316   504356 
  256000   0.99893983   -2.1234045   -2.1234045   -1.2092867  0.069758852   -2.1234045   0.91411774   504345 
  257000   0.99963244   -2.1238279   -2.1238279   -1.2090546  0.072151741   -2.1238279    0.9147733   504333 
  258000     0.998167   -2.1226967   -2.1226967   -1.2092427  0.069351303   -2.1226967     0.913454   504321 
  259000    0.9986476   -2.1239181   -2.1239181   -1.2100025  0.065484102   -2.1239181   0.91391556   504309 
  260000   0.99672962   -2.1216937   -2.1216937   -1.2095135  0.066726722   -2.1216937   0.91218021   504298 
  261000    0.9977027   -2.1220131   -2.1220131   -1.2089206  0.072228496   -2.1220131   0.91309247   504286 
  262000   0.99722655   -2.1212574   -2.1212574    -1.208579  0.073520739   -2.1212574   0.91267842   504274 
  263000   0.99885768   -2.1229918   -2.1229918   -1.2087987  0.067216061   -2.1229918   0.91419301   504262 
  264000   0.99945123   -2.1245873   -2.1245873   -1.2098311  0.056112866   -2.1245873   0.91475621   504251 
  265000   0.99926414   -2.1243756   -2.1243756   -1.2097689   0.06867618   -2.1243756   0.91460674   504239 
  266000   0.99839112   -2.1237834   -2.1237834    -1.209954  0.062021693   -2.1237834   0.91382942   504227 
  267000   0.99816785   -2.1229435   -2.1229435   -1.2092967  0.079611416   -2.1229435   0.91364681   504215 
  268000   0.99924991   -2.1244365   -2.1244365   -1.2097793  0.061115511   -2.1244365    0.9146572   504204 
  269000   0.99718402   -2.1238578   -2.1238578   -1.2110698  0.064665728   -2.1238578   0.91278792   504192 
  270000   0.99634569   -2.1239398   -2.1239398   -1.2118976  0.069802761   -2.1239398   0.91204225   504180 
  271000   0.99764812   -2.1245126   -2.1245126   -1.2112564  0.069924919   -2.1245126   0.91325621   504168 
  272000   0.99679414   -2.1237548   -2.1237548   -1.2112586  0.069915427   -2.1237548    0.9124962   504156 
  273000   0.99576514   -2.1228082   -2.1228082   -1.2112341  0.060777537   -2.1228082   0.91157411   504145 
  274000   0.99581531   -2.1231938   -2.1231938    -1.211552  0.062691976   -2.1231938   0.91164173   504133 
  275000   0.99426941   -2.1218562   -2.1218562    -1.211608  0.065988576   -2.1218562   0.91024817   504121 
  276000   0.99626153   -2.1245093   -2.1245093   -1.2124156  0.070870328   -2.1245093   0.91209366   504109 
  277000   0.99555611   -2.1233591   -2.1233591   -1.2118914  0.068949268   -2.1233591   0.91146772   504098 
  278000   0.99836803   -2.1255832   -2.1255832   -1.2115193  0.066121166   -2.1255832    0.9140639   504086 
  279000   0.99630601   -2.1241295   -2.1241295   -1.2119318  0.063553239   -2.1241295   0.91219771   504074 
  280000   0.99663829   -2.1246724   -2.1246724   -1.2121488  0.066084153   -2.1246724   0.91252366   504062 
  281000   0.99758847   -2.1261236   -2.1261236   -1.2127101  0.066276497   -2.1261236   0.91341359   504051 
  282000   0.99677606   -2.1245761   -2.1245761   -1.2118847  0.072138786   -2.1245761   0.91269146   504039 
  283000   0.99606921   -2.1239464   -2.1239464   -1.2118804  0.070920292   -2.1239464   0.91206595   504027 
  284000   0.99673327   -2.1245113   -2.1245113   -1.2118156  0.066333643   -2.1245113   0.91269573   504015 
  285000   0.99515513   -2.1240103   -2.1240103   -1.2127397  0.057968833   -2.1240103   0.91127054   504004 
  286000    0.9974274   -2.1246356   -2.1246356   -1.2112626  0.063699192   -2.1246356   0.91337302   503992 
  287000   0.99796439   -2.1256548   -2.1256548   -1.2117683  0.065884005   -2.1256548   0.91388651   503980 
  288000   0.99834239    -2.126967    -2.126967   -1.2127126  0.070708537    -2.126967   0.91425444   503968 
  289000   0.99535152   -2.1241151   -2.1241151   -1.2125779  0.066219982   -2.1241151   0.91153718   503956 
  290000   0.99583532   -2.1245946   -2.1245946   -1.2125945  0.059272722   -2.1245946   0.91200015   503945 
  291000   0.99621425   -2.1257879   -2.1257879    -1.213419  0.063053231   -2.1257879   0.91236891   503933 
  292000   0.99593519   -2.1242367   -2.1242367   -1.2121016   0.07533485   -2.1242367   0.91213506   503921 
  293000   0.99561622   -2.1237674   -2.1237674   -1.2119028  0.071139115   -2.1237674   0.91186464   503909 
  294000   0.99701376   -2.1249502   -2.1249502   -1.2117856  0.063553034   -2.1249502   0.91316455   503898 
  295000   0.99780945   -2.1257002   -2.1257002   -1.2117852  0.067633744   -2.1257002   0.91391508   503886 
  296000   0.99700128   -2.1261962   -2.1261962   -1.2129996  0.069154126   -2.1261962   0.91319661   503874 
  297000   0.99814615   -2.1266732   -2.1266732   -1.2124062  0.063951213   -2.1266732   0.91426702   503862 
  298000   0.99589784   -2.1243545   -2.1243545   -1.2121269  0.071257538   -2.1243545   0.91222756   503851 
  299000   0.99562484   -2.1248259   -2.1248259   -1.2128267  0.074281127   -2.1248259   0.91199922   503839 
  300000   0.99714651   -2.1254678   -2.1254678   -1.2120529  0.057904894   -2.1254678   0.91341484   503827 
  301000   0.99512207   -2.1244386   -2.1244386   -1.2128565  0.067723027   -2.1244386    0.9115821   503815 
  302000   0.99571076   -2.1240197   -2.1240197   -1.2118784   0.06332491   -2.1240197   0.91214129   503804 
  303000   0.99532862   -2.1243224   -2.1243224   -1.2125094  0.075177929   -2.1243224   0.91181294   503792 
  304000   0.99489419   -2.1253596   -2.1253596    -1.213923  0.062538396   -2.1253596   0.91143668   503780 
  305000    0.9938085   -2.1244258   -2.1244258    -1.213962   0.05887381   -2.1244258   0.91046374   503768 
  306000   0.99616539   -2.1250753   -2.1250753   -1.2124306  0.075926797   -2.1250753   0.91264471   503756 
  307000    0.9970705   -2.1257337   -2.1257337   -1.2122398  0.073202644   -2.1257337   0.91349389   503745 
  308000   0.99780052   -2.1265943   -2.1265943   -1.2124098  0.065541248   -2.1265943   0.91418449   503733 
  309000   0.99713228    -2.126012    -2.126012   -1.2124179  0.064288276    -2.126012   0.91359401   503721 
  310000   0.99491404   -2.1238372   -2.1238372   -1.2122539  0.072731031   -2.1238372   0.91158333   503709 
  311000   0.99868561   -2.1275292   -2.1275292   -1.2124702  0.069923557   -2.1275292   0.91505899   503698 
  312000   0.99527483   -2.1236416   -2.1236416   -1.2116861  0.068611373   -2.1236416   0.91195555   503686 
  313000   0.99623753   -2.1250426   -2.1250426   -1.2121832  0.061969789   -2.1250426   0.91285939   503674 
  314000   0.99644931   -2.1254556   -2.1254556   -1.2123804  0.066170107   -2.1254556   0.91307521   503662 
  315000   0.99605883   -2.1254964   -2.1254964   -1.2127591  0.063315156   -2.1254964   0.91273733   503651 
  316000   0.99581584   -2.1263482   -2.1263482   -1.2138117  0.070520015   -2.1263482   0.91253641   503639 
  317000   0.99980565   -2.1274767   -2.1274767   -1.2112623     0.070746   -2.1274767   0.91621439   503627 
  318000   0.99841617   -2.1265825   -2.1265825   -1.2116197  0.073908476   -2.1265825   0.91496288   503615 
  319000   0.99645946   -2.1258752   -2.1258752   -1.2126856  0.076413068   -2.1258752   0.91318967   503604 
  320000   0.99636649   -2.1259275   -2.1259275   -1.2128013  0.068263819   -2.1259275   0.91312623   503592 
  321000   0.99599283    -2.126156    -2.126156   -1.2133504  0.071928916    -2.126156   0.91280554   503580 
  322000   0.99633265   -2.1254836   -2.1254836   -1.2123448  0.067007128   -2.1254836   0.91313873   503568 
  323000   0.99473611   -2.1244613   -2.1244613    -1.212764  0.062205702   -2.1244613   0.91169723   503556 
  324000   0.99407953    -2.124013    -2.124013   -1.2128976  0.062910744    -2.124013   0.91111536   503545 
  325000   0.99494914   -2.1245921   -2.1245921    -1.212658  0.075643738   -2.1245921   0.91193413   503533 
  326000   0.99530519   -2.1252205   -2.1252205   -1.2129383   0.06448927   -2.1252205   0.91228221   503521 
  327000   0.99743907   -2.1264519   -2.1264519    -1.212192  0.068587101   -2.1264519   0.91425988   503509 
  328000   0.99661864    -2.125494    -2.125494   -1.2119662  0.076782744    -2.125494   0.91352783   503498 
  329000    0.9964107   -2.1249882   -2.1249882   -1.2116292  0.073368492   -2.1249882     0.913359   503486 
  330000   0.99567521   -2.1244652   -2.1244652   -1.2117586  0.068123419   -2.1244652   0.91270656   503474 
  331000   0.99600588   -2.1246674   -2.1246674    -1.211636  0.061263228   -2.1246674   0.91303143   503462 
  332000   0.99484112   -2.1241657   -2.1241657   -1.2121821   0.06944879   -2.1241657   0.91198363   503451 
  333000   0.99438092   -2.1219301   -2.1219301   -1.2103466  0.070516322   -2.1219301   0.91158349   503439 
  334000   0.99750115   -2.1251831   -2.1251831   -1.2107174  0.083278312   -2.1251831   0.91446571   503427 
  335000   0.99510124     -2.12322     -2.12322   -1.2109326  0.065215798     -2.12322   0.91228732   503415 
  336000   0.99650898   -2.1249162   -2.1249162   -1.2113183  0.068292191   -2.1249162   0.91359788   503404 
  337000   0.99458781    -2.122755    -2.122755   -1.2108967  0.061345643    -2.122755   0.91185828   503392 
  338000   0.99134624   -2.1195126   -2.1195126   -1.2106045   0.06792434   -2.1195126   0.90890801   503380 
  339000   0.99413904   -2.1217019   -2.1217019   -1.2102116  0.064478742   -2.1217019    0.9114903   503368 
  340000   0.99457471   -2.1222815   -2.1222815     -1.21037  0.061036243   -2.1222815   0.91191149   503356 
  341000   0.99350465   -2.1211158   -2.1211158   -1.2101656  0.062278718   -2.1211158   0.91095027   503345 
  342000   0.99466088   -2.1232002   -2.1232002   -1.2111681  0.070681465   -2.1232002   0.91203217   503333 
  343000   0.99457504   -2.1230741   -2.1230741   -1.2110989  0.069037239   -2.1230741   0.91197521   503321 
  344000   0.99498812   -2.1240154   -2.1240154   -1.2116397  0.067780171   -2.1240154   0.91237573   503309 
  345000   0.99412771   -2.1231732   -2.1231732   -1.2115665  0.070917963   -2.1231732   0.91160669   503298 
  346000   0.99550183   -2.1240463   -2.1240463   -1.2111578  0.059308973   -2.1240463   0.91288851   503286 
  347000   0.99444522   -2.1236991   -2.1236991   -1.2117578  0.063240803   -2.1236991   0.91194132   503274 
  348000   0.99405423   -2.1242207   -2.1242207   -1.2126162  0.063667235   -2.1242207   0.91160451   503262 
  349000   0.99329108   -2.1241769   -2.1241769   -1.2132523  0.062562124   -2.1241769   0.91092456   503251 
  350000   0.99442052   -2.1254293   -2.1254293   -1.2134472  0.065110711   -2.1254293    0.9119821   503239 
  351000   0.99277628   -2.1243628   -2.1243628   -1.2138669   0.07428815   -2.1243628   0.91049588   503227 
  352000   0.99457649   -2.1255959   -2.1255959   -1.2134272  0.060721193   -2.1255959   0.91216864   503215 
  353000     0.995163   -2.1269311   -2.1269311   -1.2142046  0.068834765   -2.1269311    0.9127265   503204 
  354000   0.99466455   -2.1267431   -2.1267431    -1.214452  0.066307764   -2.1267431    0.9122911   503192 
  355000    0.9939995   -2.1271146   -2.1271146   -1.2154117  0.074458716   -2.1271146   0.91170287   503180 
  356000   0.99316947   -2.1257816   -2.1257816   -1.2148183  0.068284145   -2.1257816   0.91096328   503168 
  357000   0.99223433   -2.1259113   -2.1259113   -1.2157841  0.067272666   -2.1259113   0.91012726   503156 
  358000   0.99388669   -2.1277247   -2.1277247   -1.2160619  0.073865866   -2.1277247   0.91166281   503145 
  359000    0.9926606   -2.1263408   -2.1263408   -1.2157809  0.064428087   -2.1263408   0.91055987   503133 
  360000   0.99318228   -2.1266738   -2.1266738   -1.2156137  0.072512121   -2.1266738   0.91106013   503121 
  361000   0.99357382   -2.1278216   -2.1278216   -1.2163805  0.069430124   -2.1278216   0.91144104   503109 
  362000    0.9944281   -2.1281839   -2.1281839   -1.2159392  0.061775573   -2.1281839   0.91224464   503098 
  363000   0.99251161   -2.1265793   -2.1265793    -1.216071  0.067193137   -2.1265793   0.91050826   503086 
  364000   0.99223463    -2.126183    -2.126183   -1.2159072  0.063520429    -2.126183   0.91027587   503074 
  365000   0.99300087   -2.1272263   -2.1272263   -1.2162258  0.064044434   -2.1272263   0.91100056   503062 
  366000   0.99286722   -2.1266399   -2.1266399    -1.215742  0.068938562   -2.1266399   0.91089786   503051 
  367000   0.99305282   -2.1275799   -2.1275799   -1.2164901  0.066820887   -2.1275799   0.91108987   503039 
  368000   0.99105124    -2.126001    -2.126001   -1.2167258  0.057900256    -2.126001   0.90927518   503027 
  369000   0.99330608   -2.1278433   -2.1278433   -1.2164775  0.063080331   -2.1278433   0.91136571   503015 
  370000   0.99088041   -2.1257837   -2.1257837   -1.2166237  0.068613717   -2.1257837   0.90916002   503004 
  371000   0.98990176   -2.1248708   -2.1248708    -1.216587  0.065205566   -2.1248708   0.90828376   502992 
  372000    0.9925857   -2.1267681   -2.1267681   -1.2159999  0.063108643   -2.1267681   0.91076812   502980 
  373000   0.99385864   -2.1280771   -2.1280771   -1.2161193  0.069826951   -2.1280771   0.91195789   502968 
  374000   0.99316408   -2.1273624   -2.1273624   -1.2160201  0.060631148   -2.1273624   0.91134231   502956 
  375000   0.99215119   -2.1272839   -2.1272839   -1.2168511    0.0626948   -2.1272839   0.91043278   502945 
  376000    0.9915705   -2.1267676   -2.1267676   -1.2168459  0.064880885   -2.1267676   0.90992163   502933 
  377000   0.99056644   -2.1260597   -2.1260597   -1.2170378  0.073572297   -2.1260597   0.90902194   502921 
  378000   0.99276885    -2.126572    -2.126572   -1.2155072  0.062955438    -2.126572   0.91106479   502909 
  379000   0.99230483   -2.1258149   -2.1258149    -1.215156  0.058855099   -2.1258149   0.91065887   502898 
  380000   0.99281044   -2.1264924   -2.1264924   -1.2153478  0.069090296   -2.1264924   0.91114463   502886 
  381000   0.99311672   -2.1256228   -2.1256228   -1.2141754  0.082766025   -2.1256228   0.91144746   502874 
  382000   0.99223603   -2.1265124   -2.1265124   -1.2158514  0.066443715   -2.1265124   0.91066092   502862 
  383000   0.99078051   -2.1259966   -2.1259966   -1.2166516  0.076828742   -2.1259966   0.90934495   502851 
  384000    0.9909433   -2.1263411   -2.1263411    -1.216825  0.075949826   -2.1263411   0.90951607   502839 
  385000   0.99021136   -2.1256045   -2.1256045   -1.2167386  0.056860305   -2.1256045   0.90886597   502827 
  386000   0.99081243   -2.1264767   -2.1264767   -1.2170373  0.065683632   -2.1264767   0.90943936   502815 
  387000   0.99361999   -2.1286701   -2.1286701   -1.2166338  0.060705883   -2.1286701    0.9120363   502804 
  388000   0.99048307   -2.1257707   -2.1257707    -1.216592  0.063670977   -2.1257707   0.90917864   502792 
  389000   0.99021946   -2.1252961   -2.1252961   -1.2163377  0.063703734   -2.1252961   0.90895836   502780 
  390000   0.99099952    -2.125908    -2.125908   -1.2162119  0.074328361    -2.125908   0.90969612   502768 
  391000   0.99253551    -2.127416    -2.127416   -1.2162882   0.06383833    -2.127416   0.91112784   502756 
  392000   0.99210935    -2.127259    -2.127259   -1.2165024  0.073066792    -2.127259   0.91075656   502745 
  393000   0.99152932    -2.126831    -2.126831   -1.2165852  0.059576835    -2.126831   0.91024582   502733 
  394000   0.99166427   -2.1267598   -2.1267598   -1.2163683   0.05969199   -2.1267598   0.91039144   502721 
  395000   0.99026835   -2.1260349   -2.1260349   -1.2169033  0.066502418   -2.1260349   0.90913162   502709 
  396000    0.9910966    -2.127259    -2.127259    -1.217347   0.06383203    -2.127259   0.90991192   502698 
  397000   0.99161871   -2.1278463   -2.1278463   -1.2174333  0.069696251   -2.1278463     0.910413   502686 
  398000   0.99039444    -2.127696    -2.127696   -1.2183853  0.062724037    -2.127696   0.90931069   502674 
  399000   0.98982615   -2.1270657   -2.1270657   -1.2182551  0.060330366   -2.1270657   0.90881063   502662 
  400000   0.98916353    -2.127493    -2.127493   -1.2192709  0.058977885    -2.127493   0.90822211   502651 
  401000   0.98938691   -2.1271965   -2.1271965   -1.2187476  0.069600622   -2.1271965    0.9084489   502639 
  402000   0.98989296   -2.1270451   -2.1270451   -1.2181099  0.058427186   -2.1270451   0.90893525   502627 
  403000   0.99129509   -2.1281771   -2.1281771   -1.2179327  0.067213939   -2.1281771   0.91024444   502615 
  404000   0.98932415   -2.1271548   -2.1271548   -1.2187003  0.065831657   -2.1271548   0.90845453   502604 
  405000   0.99089525   -2.1291433   -2.1291433   -1.2192243  0.059329944   -2.1291433   0.90991894   502592 
  406000   0.99093907   -2.1293818   -2.1293818   -1.2194009  0.064880731   -2.1293818   0.90998089   502580 
  407000   0.98960222   -2.1286279   -2.1286279   -1.2198529  0.061941366   -2.1286279   0.90877496   502568 
  408000   0.99184666   -2.1284286   -2.1284286   -1.2175708  0.057114081   -2.1284286   0.91085784   502556 
  409000   0.99098308   -2.1278917   -2.1278917    -1.217807  0.061635019   -2.1278917   0.91008469   502545 
  410000   0.99106619   -2.1296435   -2.1296435   -1.2194607  0.068943852   -2.1296435   0.91018275   502533 
  411000   0.98897843   -2.1278276   -2.1278276   -1.2195406  0.077252811   -2.1278276   0.90828707   502521 
  412000   0.98819365   -2.1277904   -2.1277904   -1.2202024  0.070916922   -2.1277904   0.90758799   502509 
  413000   0.99125187   -2.1300493   -2.1300493   -1.2196327  0.064567078   -2.1300493   0.91041668   502498 
  414000   0.99138258   -2.1296331   -2.1296331   -1.2190746  0.066301912   -2.1296331   0.91055848   502486 
  415000    0.9904071   -2.1290939   -2.1290939   -1.2194097  0.065593942   -2.1290939   0.90968425   502474 
  416000   0.98767136   -2.1277213   -2.1277213   -1.2205282  0.069621678   -2.1277213   0.90719315   502462 
  417000   0.98860478   -2.1281341   -2.1281341   -1.2200637  0.062988865   -2.1281341    0.9080704   502451 
  418000   0.98657406   -2.1264574   -2.1264574   -1.2202306  0.055495032   -2.1264574   0.90622675   502439 
  419000   0.98778352   -2.1262573   -2.1262573   -1.2188979  0.052926828   -2.1262573   0.90735937   502427 
  420000   0.98856846   -2.1266785   -2.1266785   -1.2185764  0.068905298   -2.1266785   0.90810209   502415 
  421000   0.98948956   -2.1272505   -2.1272505   -1.2182824  0.064911046   -2.1272505   0.90896813   502404 
  422000   0.99080432   -2.1279839   -2.1279839   -1.2177863  0.065598587   -2.1279839   0.91019763   502392 
  423000   0.99003284   -2.1272884   -2.1272884   -1.2177778  0.068703333   -2.1272884   0.90951064   502380 
  424000   0.99068202   -2.1272732   -2.1272732   -1.2171444  0.070324323   -2.1272732   0.91012876   502368 
  425000   0.98871705   -2.1256429   -2.1256429   -1.2172976  0.064526686   -2.1256429   0.90834527   502356 
  426000    0.9893866    -2.126524    -2.126524   -1.2175437  0.068434275    -2.126524   0.90898029   502345 
  427000   0.98986021   -2.1269865   -2.1269865   -1.2175494  0.054972589   -2.1269865   0.90943713   502333 
  428000   0.98859324   -2.1255338   -2.1255338    -1.217239  0.075672434   -2.1255338    0.9082948   502321 
  429000   0.98750954   -2.1261308   -2.1261308     -1.21881  0.056299893   -2.1261308    0.9073208   502309 
  430000   0.98706157   -2.1258397   -2.1258397   -1.2189106  0.059763265   -2.1258397   0.90692906   502298 
  431000   0.98766543   -2.1264159   -2.1264159   -1.2189103  0.059159318   -2.1264159   0.90750558   502286 
  432000   0.98729699   -2.1254204   -2.1254204   -1.2182317  0.061249135   -2.1254204   0.90718872   502274 
  433000   0.98759245   -2.1248463   -2.1248463   -1.2173644  0.071333824   -2.1248463   0.90748189   502262 
  434000   0.98739741   -2.1248449   -2.1248449   -1.2175224  0.065194549   -2.1248449   0.90732254   502251 
  435000   0.98723071   -2.1234383   -2.1234383   -1.2162473  0.062245334   -2.1234383   0.90719103   502239 
  436000   0.98899557   -2.1254272   -2.1254272   -1.2165927  0.061743425   -2.1254272   0.90883452   502227 
  437000   0.98828505   -2.1242714   -2.1242714   -1.2160681  0.063691026   -2.1242714    0.9082033   502215 
  438000   0.98854489   -2.1252963   -2.1252963   -1.2168343  0.061580662   -2.1252963   0.90846197   502204 
  439000   0.98910813   -2.1264969   -2.1264969   -1.2174956   0.06856654   -2.1264969    0.9090013   502192 
  440000   0.99121826   -2.1278241   -2.1278241   -1.2168618  0.071271872   -2.1278241   0.91096231   502180 
  441000   0.99005435   -2.1280532   -2.1280532   -1.2181388   0.05937421   -2.1280532   0.90991438   502168 
  442000   0.98836969   -2.1265385   -2.1265385   -1.2181507  0.056971751   -2.1265385   0.90838779   502156 
  443000   0.98800723   -2.1270685   -2.1270685    -1.218994   0.06129764   -2.1270685   0.90807456   502145 
  444000   0.98790134   -2.1270545   -2.1270545   -1.2190556  0.062265815   -2.1270545   0.90799893   502133 
  445000   0.98968451   -2.1285124   -2.1285124   -1.2188528  0.060278975   -2.1285124   0.90965962   502121 
  446000   0.98978415   -2.1289502   -2.1289502   -1.2191773  0.057690649   -2.1289502   0.90977294   502109 
  447000   0.99016898   -2.1293649   -2.1293649   -1.2192183  0.057670763   -2.1293649    0.9101466   502098 
  448000   0.98764217   -2.1274522   -2.1274522   -1.2196065  0.061354246   -2.1274522   0.90784569   502086 
  449000   0.98749087    -2.127171    -2.127171   -1.2194426  0.070109404    -2.127171   0.90772832   502074 
  450000   0.98792093   -2.1270786   -2.1270786   -1.2189333  0.065685986   -2.1270786   0.90814535   502062 
  451000   0.98848319   -2.1284049   -2.1284049   -1.2197228  0.064100339   -2.1284049   0.90868211   502051 
  452000   0.98818366   -2.1293155   -2.1293155    -1.220887  0.058523714   -2.1293155   0.90842847   502039 
  453000   0.98714087   -2.1284928   -2.1284928   -1.2210013  0.057982867   -2.1284928   0.90749154   502027 
  454000   0.98615045   -2.1291253   -2.1291253   -1.2225226  0.070272619   -2.1291253    0.9066027   502015 
  455000   0.98769305   -2.1296213   -2.1296213   -1.2215806  0.059939433   -2.1296213   0.90804077   502004 
  456000   0.98593219    -2.128921    -2.128921   -1.2224774  0.072069159    -2.128921   0.90644358   501992 
  457000     0.986877   -2.1289768   -2.1289768   -1.2216429  0.061118038   -2.1289768    0.9073339   501980 
  458000   0.98629703   -2.1291638   -2.1291638   -1.2223415  0.060147554   -2.1291638   0.90682236   501968 
  459000   0.98551144   -2.1286519   -2.1286519   -1.2225302  0.065878871   -2.1286519   0.90612173   501956 
  460000   0.98604202   -2.1281419   -2.1281419   -1.2215125  0.060857993   -2.1281419   0.90662944   501945 
  461000    0.9863645   -2.1274397   -2.1274397    -1.220492  0.060858612   -2.1274397   0.90694763   501933 
  462000   0.98804154    -2.128198    -2.128198   -1.2196867  0.067257044    -2.128198   0.90851136   501921 
  463000    0.9846425   -2.1254721   -2.1254721   -1.2200645  0.064368408   -2.1254721   0.90540757   501909 
  464000   0.98715251   -2.1277659   -2.1277659   -1.2200304  0.072293912   -2.1277659   0.90773548   501898 
  465000   0.98684158   -2.1275097   -2.1275097   -1.2200384  0.061563261   -2.1275097   0.90747127   501886 
  466000   0.98667059   -2.1269692   -2.1269692   -1.2196335  0.067475925   -2.1269692   0.90733573   501874 
  467000   0.98622638   -2.1266021   -2.1266021   -1.2196532  0.061841691   -2.1266021   0.90694892   501862 
  468000   0.98796577   -2.1280763   -2.1280763   -1.2195079  0.069821189   -2.1280763    0.9085684   501851 
  469000   0.98611604   -2.1269816   -2.1269816   -1.2200926  0.066103721   -2.1269816   0.90688901   501839 
  470000   0.98660743    -2.128583    -2.128583   -1.2212204  0.067905398    -2.128583   0.90736262   501827 
  471000   0.98496068   -2.1267289   -2.1267289   -1.2208591  0.061754481   -2.1267289    0.9058698   501815 
  472000   0.98519444   -2.1263758   -2.1263758   -1.2202711  0.072513608   -2.1263758   0.90610465   501804 
  473000    0.9861731    -2.127867    -2.127867   -1.2208405  0.066856393    -2.127867   0.90702644   501792 
  474000    0.9875461   -2.1284682   -2.1284682   -1.2201572  0.063698889   -2.1284682   0.90831097   501780 
  475000   0.98644101    -2.127127    -2.127127   -1.2198108  0.065700164    -2.127127   0.90731624   501768 
  476000   0.98651984   -2.1275933   -2.1275933   -1.2201829   0.06044617   -2.1275933   0.90741045   501756 
  477000   0.98522689   -2.1260246   -2.1260246   -1.2197836  0.061634455   -2.1260246   0.90624105   501745 
  478000   0.98463154   -2.1256811   -2.1256811    -1.219966  0.052499368   -2.1256811   0.90571509   501733 
  479000   0.98687577   -2.1275244   -2.1275244   -1.2197232  0.058957467   -2.1275244   0.90780116   501721 
  480000   0.98546574   -2.1260785   -2.1260785   -1.2195527  0.058494412   -2.1260785   0.90652579   501709 
  481000   0.98725631    -2.127901    -2.127901   -1.2197082  0.061521554    -2.127901   0.90819284   501698 
  482000   0.98792735    -2.128083    -2.128083   -1.2192511  0.061069632    -2.128083   0.90883188   501686 
  483000   0.98654925    -2.127331    -2.127331   -1.2197452  0.057220436    -2.127331   0.90758582   501674 
  484000   0.98536294   -2.1262229   -2.1262229   -1.2197067  0.070989226   -2.1262229   0.90651615   501662 
  485000   0.98719093   -2.1272095   -2.1272095   -1.2189917  0.062071939   -2.1272095   0.90821778   501651 
  486000   0.98596976   -2.1268985   -2.1268985   -1.2197825  0.064688214   -2.1268985     0.907116   501639 
  487000   0.98777869   -2.1278253   -2.1278253   -1.2190233  0.062268145   -2.1278253     0.908802   501627 
  488000   0.98741062   -2.1273465   -2.1273465   -1.2188614  0.062745939   -2.1273465    0.9084851   501615 
  489000    0.9856794   -2.1257152   -2.1257152    -1.218803  0.066056654   -2.1257152   0.90691213   501604 
  490000    0.9849765   -2.1255751   -2.1255751    -1.219288  0.059127444   -2.1255751   0.90628709   501592 
  491000   0.98510468   -2.1254181   -2.1254181   -1.2189914  0.069667379   -2.1254181   0.90642671   501580 
  492000   0.98515975   -2.1269089   -2.1269089   -1.2204098  0.066593672   -2.1269089   0.90649908   501568 
  493000   0.98307935     -2.12398     -2.12398   -1.2193735  0.061373842     -2.12398   0.90460643   501556 
  494000   0.98409705   -2.1258633   -2.1258633   -1.2203005  0.055809187   -2.1258633   0.90556275   501545 
  495000   0.98156179    -2.123941    -2.123941   -1.2206896  0.073780744    -2.123941   0.90325142   501533 
  496000   0.98386097   -2.1253684   -2.1253684   -1.2199796  0.058583787   -2.1253684   0.90538884   501521 
  497000   0.98364811   -2.1244249   -2.1244249   -1.2192103  0.068069105   -2.1244249   0.90521462   501509 
  498000   0.98361759   -2.1248227   -2.1248227   -1.2196163  0.060757494   -2.1248227   0.90520638   501498 
  499000   0.98378317   -2.1249443   -2.1249443   -1.2195639  0.059863547   -2.1249443   0.90538043   501486 
  500000   0.98507957   -2.1253751   -2.1253751   -1.2187799  0.056209938   -2.1253751    0.9065952   501474 
  501000   0.98541133   -2.1248187   -2.1248187   -1.2178965  0.064830868   -2.1248187   0.90692223   501462 
  502000   0.98570031     -2.12634     -2.12634    -1.219132   0.06250401     -2.12634   0.90720809   501451 
  503000   0.98467397   -2.1254333   -2.1254333   -1.2191481  0.069793692   -2.1254333   0.90628517   501439 
  504000   0.98472019   -2.1246724   -2.1246724    -1.218323   0.05975598   -2.1246724   0.90634941   501427 
  505000   0.98598702   -2.1250835   -2.1250835   -1.2175464   0.06756305   -2.1250835   0.90753713   501415 
  506000   0.98604388   -2.1256698   -2.1256698   -1.2180604  0.060223412   -2.1256698   0.90760938   501404 
  507000   0.98633223   -2.1266996   -2.1266996   -1.2188031  0.073136423   -2.1266996   0.90789652   501392 
  508000   0.98545637   -2.1265044   -2.1265044   -1.2193924  0.071510431   -2.1265044   0.90711202   501380 
  509000   0.98555834   -2.1260845   -2.1260845   -1.2188569  0.055302344   -2.1260845    0.9072276   501368 
  510000   0.98522616   -2.1274432   -2.1274432   -1.2204996  0.071487364   -2.1274432   0.90694352   501356 
  511000   0.98241034   -2.1253885   -2.1253885   -1.2210172  0.073452847   -2.1253885   0.90437128   501345 
  512000   0.98428138   -2.1256493   -2.1256493   -1.2195339   0.06331756   -2.1256493   0.90611538   501333 
  513000   0.98454666   -2.1260812   -2.1260812   -1.2196999  0.056335159   -2.1260812   0.90638129   501321 
  514000   0.98452697    -2.125761    -2.125761   -1.2193762  0.071666259    -2.125761   0.90638486   501309 
  515000   0.98422147   -2.1257034   -2.1257034   -1.2195799  0.065326594   -2.1257034   0.90612349   501298 
  516000   0.98283248   -2.1250729   -2.1250729   -1.2202065  0.064620203   -2.1250729   0.90486637   501286 
  517000   0.98402387   -2.1267372   -2.1267372   -1.2207522   0.06405984   -2.1267372   0.90598494   501274 
  518000   0.98118511   -2.1241956   -2.1241956   -1.2208027  0.055889766   -2.1241956   0.90339294   501262 
  519000   0.98333796   -2.1262458   -2.1262458   -1.2208508  0.068256851   -2.1262458   0.90539497   501251 
  520000   0.98389356   -2.1270831   -2.1270831   -1.2211549  0.065119211   -2.1270831   0.90592822   501239 
  521000   0.98287033   -2.1246377   -2.1246377   -1.2196299  0.058973356   -2.1246377   0.90500774   501227 
  522000   0.98401732   -2.1248706   -2.1248706    -1.218785  0.072592067   -2.1248706   0.90608556   501215 
  523000   0.98309699    -2.124936    -2.124936    -1.219678  0.060985898    -2.124936   0.90525798   501204 
  524000   0.98334758   -2.1250256   -2.1250256   -1.2195152  0.069065856   -2.1250256   0.90551041   501192 
  525000   0.98560943   -2.1276608   -2.1276608   -1.2200458  0.061584586   -2.1276608   0.90761496   501180 
  526000   0.98308717   -2.1250937   -2.1250937   -1.2197797  0.072171985   -2.1250937   0.90531397   501168 
  527000   0.98397128   -2.1260971   -2.1260971   -1.2199473  0.068333879   -2.1260971   0.90614983   501156 
  528000   0.98467161   -2.1264382   -2.1264382   -1.2196235  0.068082242   -2.1264382   0.90681468   501145 
  529000   0.98480029   -2.1260783   -2.1260783   -1.2191234  0.063003739   -2.1260783    0.9069549   501133 
  530000   0.98477503   -2.1259458   -2.1259458   -1.2189925  0.062075007   -2.1259458   0.90695336   501121 
  531000    0.9824204   -2.1247383   -2.1247383   -1.2199318  0.070593447   -2.1247383   0.90480646   501109 
  532000   0.98462885   -2.1266355   -2.1266355   -1.2197751  0.054840475   -2.1266355   0.90686035   501098 
  533000   0.98405112   -2.1266913   -2.1266913   -1.2203413  0.071013008   -2.1266913   0.90634995   501086 
  534000   0.98240967   -2.1252803   -2.1252803   -1.2204205  0.066494769   -2.1252803   0.90485978   501074 
  535000   0.98292119   -2.1256942   -2.1256942   -1.2203416   0.05824918   -2.1256942    0.9053526   501062 
  536000    0.9818203   -2.1256225   -2.1256225   -1.2212641  0.066879588   -2.1256225   0.90435845   501051 
  537000   0.98110603   -2.1248913   -2.1248913   -1.2211691  0.067307964   -2.1248913   0.90372217   501039 
  538000   0.98323359    -2.126853    -2.126853   -1.2211493   0.05357229    -2.126853   0.90570362   501027 
  539000   0.98304143   -2.1264452   -2.1264452   -1.2208969  0.051337239   -2.1264452    0.9055483   501015 
  540000   0.98217769   -2.1260707   -2.1260707   -1.2212982  0.060691526   -2.1260707   0.90477252   501004 
  541000   0.98370144   -2.1263447   -2.1263447   -1.2201468  0.067845936   -2.1263447   0.90619788   500992 
  542000   0.98212372   -2.1244205   -2.1244205   -1.2196543  0.066753156   -2.1244205   0.90476613   500980 
  543000   0.98349523   -2.1253856   -2.1253856   -1.2193343  0.053563367   -2.1253856   0.90605132   500968 
  544000   0.98270733   -2.1257736   -2.1257736   -1.2204264  0.059765084   -2.1257736   0.90534715   500956 
  545000   0.98295211   -2.1260308   -2.1260308   -1.2204383  0.060565062   -2.1260308   0.90559254   500945 
  546000   0.98323483   -2.1274829   -2.1274829   -1.2216082  0.066038466   -2.1274829   0.90587472   500933 
  547000   0.98316185    -2.125948    -2.125948   -1.2201189   0.06270243    -2.125948   0.90582918   500921 
  548000   0.98190088   -2.1254795   -2.1254795   -1.2207904  0.065535559   -2.1254795   0.90468907   500909 
  549000   0.98126151   -2.1254664   -2.1254664   -1.2213466  0.055359685   -2.1254664   0.90411983   500898 
  550000   0.98040619     -2.12426     -2.12426   -1.2209066  0.061296422     -2.12426   0.90335338   500886 
  551000    0.9800324   -2.1236065   -2.1236065   -1.2205759  0.055919058   -2.1236065   0.90303061   500874 
  552000   0.98265289   -2.1264928   -2.1264928   -1.2210259  0.063663926   -2.1264928    0.9054669   500862 
  553000   0.98105563   -2.1249463   -2.1249463   -1.2209314  0.061565295   -2.1249463   0.90401496   500851 
  554000   0.98140519   -2.1247713   -2.1247713   -1.2204125  0.061062727   -2.1247713   0.90435874   500839 
  555000   0.98277526   -2.1254535   -2.1254535   -1.2198105  0.065021652   -2.1254535   0.90564294   500827 
  556000   0.98297282   -2.1258461   -2.1258461   -1.2199994  0.059978879   -2.1258461    0.9058467   500815 
  557000   0.98162454   -2.1240648   -2.1240648   -1.2194407  0.061901543   -2.1240648   0.90462408   500804 
  558000   0.98300797    -2.126257    -2.126257   -1.2203363  0.066551989    -2.126257    0.9059207   500792 
  559000   0.98273017   -2.1263166   -2.1263166   -1.2206302  0.068499804   -2.1263166   0.90568639   500780 
  560000   0.98432195   -2.1268541   -2.1268541    -1.219679  0.062395038   -2.1268541   0.90717511   500768 
  561000    0.9833809   -2.1258977   -2.1258977   -1.2195681  0.077348883   -2.1258977   0.90632954   500756 
  562000   0.98263866   -2.1251587   -2.1251587   -1.2194934  0.064575661   -2.1251587   0.90566535   500745 
  563000   0.98149555   -2.1243458   -2.1243458   -1.2197124  0.055112059   -2.1243458   0.90463346   500733 
  564000   0.98254386   -2.1247692   -2.1247692   -1.2191478  0.063666065   -2.1247692   0.90562137   500721 
  565000    0.9829219   -2.1250095   -2.1250095    -1.219018  0.068344078   -2.1250095   0.90599153   500709 
  566000   0.98118112   -2.1243794   -2.1243794   -1.2199725  0.059183774   -2.1243794   0.90440687   500698 
  567000   0.98084345   -2.1234407   -2.1234407   -1.2193234  0.054531157   -2.1234407   0.90411729   500686 
  568000   0.98120448   -2.1240299   -2.1240299   -1.2195582   0.07321515   -2.1240299   0.90447175   500674 
  569000   0.98122527   -2.1246765   -2.1246765   -1.2201639  0.072842802   -2.1246765    0.9045126   500662 
  570000   0.98081016   -2.1240654   -2.1240654   -1.2199156  0.060465069   -2.1240654   0.90414981   500651 
  571000   0.98245813   -2.1257567   -2.1257567    -1.220066  0.061086197   -2.1257567   0.90569068   500639 
  572000   0.98013852    -2.123153    -2.123153    -1.219579  0.062521735    -2.123153   0.90357398   500627 
  573000   0.97967296   -2.1246347   -2.1246347   -1.2214683   0.06257622   -2.1246347   0.90316644   500615 
  574000   0.98134207   -2.1256983   -2.1256983   -1.2209732  0.055428886   -2.1256983   0.90472508   500604 
  575000   0.98175195   -2.1256426   -2.1256426    -1.220518   0.05884857   -2.1256426   0.90512465   500592 
  576000   0.98309096   -2.1269783   -2.1269783   -1.2205974  0.059332475   -2.1269783   0.90638088   500580 
  577000   0.98115017   -2.1242418   -2.1242418   -1.2196286  0.072787732   -2.1242418   0.90461321   500568 
  578000   0.98355387   -2.1265459   -2.1265459   -1.2196948  0.061795627   -2.1265459   0.90685115   500556 
  579000    0.9844267   -2.1274347   -2.1274347   -1.2197589  0.070166748   -2.1274347   0.90767586   500545 
  580000   0.98204926   -2.1254615   -2.1254615    -1.219956  0.072516224   -2.1254615   0.90550548   500533 
  581000   0.98196383   -2.1265007   -2.1265007   -1.2210523  0.066435281   -2.1265007   0.90544842   500521 
  582000   0.98002512   -2.1247402   -2.1247402   -1.2210577  0.078408312   -2.1247402   0.90368244   500509 
  583000   0.98306039   -2.1269627   -2.1269627   -1.2204615  0.052409393   -2.1269627   0.90650119   500498 
  584000   0.98249702   -2.1258724   -2.1258724    -1.219869  0.064581167   -2.1258724   0.90600342   500486 
  585000   0.98294666   -2.1265203   -2.1265203   -1.2200805  0.076731255   -2.1265203   0.90643978   500474 
  586000   0.98340405   -2.1265805   -2.1265805   -1.2196972  0.067335048   -2.1265805   0.90688331   500462 
  587000   0.98451086   -2.1276131   -2.1276131   -1.2196891   0.07113567   -2.1276131   0.90792396   500451 
  588000   0.98384464   -2.1265018   -2.1265018   -1.2191705  0.074963621   -2.1265018   0.90733132   500439 
  589000    0.9840391   -2.1273167   -2.1273167   -1.2197843   0.07517429   -2.1273167   0.90753242   500427 
  590000   0.98385503   -2.1267624   -2.1267624   -1.2193779  0.066425974   -2.1267624   0.90738442   500415 
  591000   0.98252066   -2.1255323   -2.1255323   -1.2193587  0.064202638   -2.1255323   0.90617368   500404 
  592000   0.98306858   -2.1265247   -2.1265247   -1.2198239  0.061923503   -2.1265247   0.90670077   500392 
  593000   0.98214474   -2.1256973   -2.1256973   -1.2198269   0.05233507   -2.1256973   0.90587042   500380 
  594000   0.98098436   -2.1245734   -2.1245734   -1.2197516  0.062700135   -2.1245734   0.90482186   500368 
  595000   0.98114243    -2.125422    -2.125422   -1.2204326  0.069000704    -2.125422   0.90498936   500356 
  596000   0.98156803   -2.1245726   -2.1245726   -1.2191708  0.070282497   -2.1245726   0.90540183   500345 
  597000   0.98044505   -2.1239149   -2.1239149   -1.2195273  0.058769504   -2.1239149   0.90438768   500333 
  598000   0.98125596   -2.1250118   -2.1250118   -1.2198544  0.064261796   -2.1250118   0.90515739   500321 
  599000   0.98137561    -2.124573    -2.124573   -1.2192835  0.065041233    -2.124573   0.90528947   500309 
  600000    0.9816083   -2.1249112   -2.1249112   -1.2193872    0.0580371   -2.1249112   0.90552403   500298 
  601000   0.98019672   -2.1236575   -2.1236575   -1.2194139  0.070417468   -2.1236575   0.90424356   500286 
  602000   0.97986085   -2.1234293   -2.1234293   -1.2194739  0.062069448   -2.1234293   0.90395539   500274 
  603000   0.97919484   -2.1226658   -2.1226658   -1.2193032  0.070411351   -2.1226658   0.90336264   500262 
  604000   0.97976361   -2.1233403   -2.1233403   -1.2194331  0.049442131   -2.1233403   0.90390724   500251 
  605000   0.98004663   -2.1228351   -2.1228351   -1.2186451  0.055058116   -2.1228351   0.90419004   500239 
  606000   0.98108999   -2.1234225   -2.1234225   -1.2182481  0.062687681   -2.1234225   0.90517435   500227 
  607000   0.97997305   -2.1227911   -2.1227911   -1.2186256   0.07173907   -2.1227911   0.90416554   500215 
  608000   0.98015196    -2.122933    -2.122933   -1.2185825  0.066747169    -2.122933   0.90435049   500204 
  609000   0.97891717   -2.1221579   -2.1221579   -1.2189251  0.057782048   -2.1221579   0.90323286   500192 
  610000   0.97959283   -2.1225111   -2.1225111   -1.2186332  0.062387158   -2.1225111   0.90387797   500180 
  611000   0.98075867   -2.1231464   -2.1231464    -1.218171   0.06633054   -2.1231464   0.90497541   500168 
  612000   0.97857842   -2.1219559   -2.1219559   -1.2189706  0.055174719   -2.1219559   0.90298529   500156 
  613000   0.97914399   -2.1229897   -2.1229897   -1.2194626  0.059996965   -2.1229897   0.90352704   500145 
  614000   0.98009096   -2.1239105   -2.1239105   -1.2194879  0.068250496   -2.1239105   0.90442258   500133 
  615000    0.9794133   -2.1232953   -2.1232953   -1.2194764  0.063432337   -2.1232953   0.90381893   500121 
  616000   0.97828811   -2.1219764   -2.1219764   -1.2191742  0.058707638   -2.1219764   0.90280225   500109 
  617000   0.97909573   -2.1227698   -2.1227698   -1.2192023  0.057687516   -2.1227698   0.90356742   500098 
  618000   0.97907323   -2.1226146   -2.1226146   -1.2190463  0.071838866   -2.1226146   0.90356834   500086 
  619000   0.97966302   -2.1234192   -2.1234192   -1.2192849  0.054281721   -2.1234192   0.90413434   500074 
  620000   0.98192706   -2.1256462   -2.1256462   -1.2194006  0.052174375   -2.1256462   0.90624558   500062 
  621000   0.98108622     -2.12539     -2.12539   -1.2199005  0.067243214     -2.12539   0.90548947   500051 
  622000   0.97961581   -2.1244544   -2.1244544   -1.2203004  0.074051487   -2.1244544   0.90415406   500039 
  623000   0.97866821    -2.123368    -2.123368   -1.2200669   0.07315267    -2.123368   0.90330112   500027 
  624000   0.97990922   -2.1237183   -2.1237183     -1.21925  0.066432095   -2.1237183   0.90446828   500015 
  625000   0.97993951   -2.1242714   -2.1242714   -1.2197552  0.061764571   -2.1242714   0.90451613   500004 
  626000   0.97902931   -2.1243785   -2.1243785   -1.2206809   0.06152848   -2.1243785   0.90369767   499992 
  627000   0.97829181   -2.1250209   -2.1250209   -1.2219823  0.059914884   -2.1250209    0.9030386   499980 
  628000   0.97646406   -2.1245269   -2.1245269   -1.2231539  0.064866808   -2.1245269   0.90137308   499968 
  629000    0.9789991   -2.1266184   -2.1266184   -1.2228836  0.065459121   -2.1266184   0.90373486   499956 
  630000   0.97980271   -2.1268169   -2.1268169   -1.2223203  0.061446291   -2.1268169   0.90449659   499945 
  631000   0.98013177   -2.1268261   -2.1268261   -1.2220041  0.069601948   -2.1268261   0.90482208   499933 
  632000   0.97907402   -2.1261344   -2.1261344   -1.2222671  0.059839636   -2.1261344   0.90386729   499921 
  633000   0.98162805   -2.1279476   -2.1279476   -1.2217007  0.056812867   -2.1279476   0.90624689   499909 
  634000   0.98000363   -2.1269481   -2.1269481    -1.222181  0.060081748   -2.1269481   0.90476713   499898 
  635000   0.98116203   -2.1280027   -2.1280027   -1.2221443  0.067830504   -2.1280027   0.90585833   499886 
  636000   0.98050692   -2.1276404   -2.1276404   -1.2223651  0.066053103   -2.1276404   0.90527524   499874 
  637000   0.97959262     -2.12695     -2.12695   -1.2224972  0.062927098     -2.12695    0.9044528   499862 
  638000   0.97802748   -2.1269559   -2.1269559   -1.2239284  0.068048373   -2.1269559   0.90302759   499851 
  639000    0.9786811    -2.127926    -2.127926   -1.2242732  0.058689763    -2.127926   0.90365278   499839 
  640000   0.97650998   -2.1260742   -2.1260742   -1.2244045  0.067577734   -2.1260742   0.90166975   499827 
  641000   0.97716297   -2.1269683   -2.1269683    -1.224674  0.070006251   -2.1269683   0.90229436   499815 
  642000   0.97959553   -2.1294727   -2.1294727   -1.2249123  0.067772174   -2.1294727   0.90456045   499804 
  643000   0.97595513   -2.1265361   -2.1265361   -1.2253155  0.062537104   -2.1265361   0.90122053   499792 
  644000   0.97814266   -2.1276478   -2.1276478   -1.2243856  0.050544348   -2.1276478   0.90326224   499780 
  645000   0.97613776   -2.1262567   -2.1262567   -1.2248242   0.07401977   -2.1262567   0.90143246   499768 
  646000   0.97561489   -2.1264142   -2.1264142   -1.2254429  0.062784779   -2.1264142   0.90097124   499756 
  647000   0.97937966   -2.1292284   -2.1292284   -1.2247605  0.065168534   -2.1292284   0.90446788   499745 
  648000   0.97861494   -2.1291859   -2.1291859   -1.2254025  0.064971769   -2.1291859   0.90378335   499733 
  649000   0.97874584    -2.128809    -2.128809    -1.224883  0.072679902    -2.128809   0.90392595   499721 
  650000   0.98028594   -2.1307807   -2.1307807   -1.2254106  0.064421536   -2.1307807   0.90537006   499709 
  651000   0.97828612   -2.1282337   -2.1282337   -1.2246907  0.076401627   -2.1282337   0.90354296   499698 
  652000   0.97929052   -2.1302106   -2.1302106   -1.2257182  0.060526845   -2.1302106   0.90449234   499686 
  653000   0.97689053   -2.1288519   -2.1288519   -1.2265546  0.061725038   -2.1288519   0.90229733   499674 
  654000   0.97703438   -2.1296797   -2.1296797   -1.2272278  0.048374325   -2.1296797   0.90245187   499662 
  655000   0.97611564   -2.1299578   -2.1299578   -1.2283346    0.0515352   -2.1299578   0.90162311   499651 
  656000   0.97564177   -2.1290128   -2.1290128   -1.2278058  0.053264875   -2.1290128   0.90120705   499639 
  657000   0.97689119   -2.1300534   -2.1300534   -1.2276706  0.059338107   -2.1300534   0.90238282   499627 
[...]
29833000 0.0098753243  -0.15540381  -0.15540381  -0.13307624 -0.00028538409  -0.15540381  0.022327569   204127 
29834000 0.0099701777  -0.15561997  -0.15561997  -0.13307795 -0.0013249539  -0.15561997  0.022542027   204127 
29835000 0.0099336066  -0.15554525  -0.15554525  -0.13308591 0.00062059885  -0.15554525  0.022459342   204127 
29836000  0.010098603  -0.15589062  -0.15589062  -0.13305823 -0.0011009735  -0.15589062  0.022832389   204127 
29837000 0.0099163321  -0.15547579  -0.15547579  -0.13305551 0.0040335004  -0.15547579  0.022420285   204127 
29838000  0.010017237   -0.1557021   -0.1557021  -0.13305367 -0.0018024921   -0.1557021  0.022648426   204127 
29839000  0.010018771  -0.15572389  -0.15572389    -0.133072 -0.002088745  -0.15572389  0.022651894   204127 
29840000 0.0099515674  -0.15555777  -0.15555777  -0.13305771 0.0012008134  -0.15555777  0.022500061   204126 
29841000  0.010024926  -0.15573207  -0.15573207  -0.13306615 0.00020509506  -0.15573207  0.022665922   204126 
29842000 0.0099534636  -0.15552692  -0.15552692  -0.13302257 0.0025826349  -0.15552692  0.022504348   204126 
29843000  0.010059329  -0.15575114  -0.15575114  -0.13300743 0.0015998548  -0.15575114  0.022743704   204126 
29844000 0.0098663355  -0.15531625  -0.15531625   -0.1330089 0.0004299928  -0.15531625  0.022307355   204126 
29845000 0.0099667957  -0.15550691  -0.15550691  -0.13297242 -0.00042275059  -0.15550691  0.022534491   204126 
29846000  0.010008597  -0.15563841  -0.15563841   -0.1330094 0.00080227849  -0.15563841  0.022629001   204126 
29847000 0.0099193584  -0.15543565  -0.15543565  -0.13300841 3.2769479e-05  -0.15543565  0.022427237   204126 
29848000  0.010065187  -0.15575009  -0.15575009  -0.13299303 0.0016827473  -0.15575009  0.022757061   204125 
29849000 0.0098284799  -0.15525169  -0.15525169  -0.13302982 0.0006062556  -0.15525169  0.022221874   204125 
29850000  0.010075321  -0.15581013  -0.15581013  -0.13303015 -0.0015249404  -0.15581013  0.022779974   204125 
29851000 0.0099375645  -0.15551613  -0.15551613  -0.13304762 0.0011131846  -0.15551613  0.022468511   204125 
29852000 0.0097858869  -0.15518686  -0.15518686  -0.13306129 -0.0015195722  -0.15518686  0.022125573   204125 
29853000 0.0099065411  -0.15543072  -0.15543072  -0.13303235 0.00076983416  -0.15543072  0.022398368   204125 
29854000 0.0099470033  -0.15551996  -0.15551996  -0.13303011 -0.00064664719  -0.15551996  0.022489852   204125 
29855000 0.0099258609  -0.15544362  -0.15544362  -0.13300158 -0.00085453858  -0.15544362  0.022442049   204125 
29856000  0.009858437   -0.1552869   -0.1552869  -0.13299729 0.0024213383   -0.1552869  0.022289606   204125 
29857000 0.0098129235  -0.15519106  -0.15519106  -0.13300435 0.00059336125  -0.15519106  0.022186702   204125 
29858000 0.0099953407  -0.15560386  -0.15560386  -0.13300461 0.00054869096  -0.15560386  0.022599252   204124 
29859000  0.010078614  -0.15580662  -0.15580662  -0.13301909 -0.0011167113  -0.15580662   0.02278753   204124 
29860000  0.010139897  -0.15593888  -0.15593888  -0.13301268 0.0020939051  -0.15593888  0.022926203   204123 
29861000 0.0099376119  -0.15549704  -0.15549704   -0.1330282 0.0025100263  -0.15549704  0.022468838   204123 
29862000 0.0099844319  -0.15560912  -0.15560912  -0.13303442 0.00077273754  -0.15560912  0.022574698   204123 
29863000 0.0099322303  -0.15547368  -0.15547368  -0.13301701 0.00070348479  -0.15547368   0.02245667   204123 
29864000 0.0099934023  -0.15559985  -0.15559985  -0.13300476 0.0011387124  -0.15559985   0.02259509   204122 
29865000 0.0098669469  -0.15532603  -0.15532603  -0.13301686 -0.0021236699  -0.15532603  0.022309175   204122 
29866000 0.0099844698  -0.15559313  -0.15559313  -0.13301823 0.0023664539  -0.15559313  0.022574894   204122 
29867000 0.0097958905  -0.15515619  -0.15515619  -0.13300767 0.0023260099  -0.15515619  0.022148516   204122 
29868000 0.0099602843   -0.1555091   -0.1555091  -0.13298889 -0.00013310974   -0.1555091   0.02252021   204122 
29869000 0.0099143518  -0.15542317  -0.15542317   -0.1330067 -0.0017469846  -0.15542317  0.022416467   204121 
29870000 0.0098837318  -0.15535162  -0.15535162  -0.13300438 0.00075308645  -0.15535162  0.022347235   204121 
29871000  0.009866398  -0.15532356  -0.15532356  -0.13301551 0.0036037827  -0.15532356  0.022308043   204121 
29872000  0.010123348   -0.1559285   -0.1559285  -0.13303949 0.00088586719   -0.1559285   0.02288901   204121 
29873000 0.0099246472  -0.15548699  -0.15548699  -0.13304725 -0.00037092033  -0.15548699  0.022439745   204121 
29874000  0.010017046  -0.15569748  -0.15569748  -0.13304882 -0.00025290084  -0.15569748   0.02264866   204121 
29875000 0.0099791368   -0.1555739   -0.1555739  -0.13301095 0.0014849968   -0.1555739  0.022562947   204121 
29876000 0.0098820825  -0.15529485  -0.15529485  -0.13295135 -0.0022898173  -0.15529485  0.022343506   204121 
29877000 0.0099841543  -0.15550635  -0.15550635  -0.13293206 0.0041069511  -0.15550635  0.022574291   204121 
29878000 0.0099210953  -0.15536243  -0.15536243  -0.13293072 0.0014685846  -0.15536243  0.022431714   204121 
29879000 0.0099296307  -0.15540552  -0.15540552  -0.13295451 -0.00031372968  -0.15540552  0.022451013   204121 
29880000  0.010120751  -0.15582772  -0.15582772  -0.13294459 0.00067788946  -0.15582772  0.022883137   204121 
29881000 0.0098831104   -0.1552929   -0.1552929  -0.13294707 -0.0013494984   -0.1552929   0.02234583   204121 
29882000 0.0099177549  -0.15541976  -0.15541976  -0.13299548 0.0019540269  -0.15541976  0.022424271   204120 
29883000  0.010099767  -0.15579711  -0.15579711  -0.13296131 -0.00066278603  -0.15579711  0.022835804   204120 
29884000  0.010072488  -0.15573674  -0.15573674  -0.13296261 0.0013203156  -0.15573674  0.022774127   204120 
29885000  0.009935095  -0.15543754  -0.15543754  -0.13297407 0.00092304883  -0.15543754  0.022463478   204120 
29886000  0.009826821  -0.15514606  -0.15514606  -0.13292739 -8.6455732e-05  -0.15514606  0.022218667   204120 
29887000 0.0098756338  -0.15527096  -0.15527096  -0.13294192 0.0023081834  -0.15527096  0.022329034   204120 
29888000 0.0098794366   -0.1552562   -0.1552562  -0.13291857 0.0017553208   -0.1552562  0.022337633   204120 
29889000 0.0097810267  -0.15500756  -0.15500756  -0.13289243 -6.8940931e-05  -0.15500756  0.022115126   204120 
29890000  0.010039245  -0.15557335  -0.15557335  -0.13287438 0.00027096201  -0.15557335  0.022698964   204120 
29891000  0.010148131  -0.15586076  -0.15586076  -0.13291561 -0.0011366132  -0.15586076  0.022945156   204120 
29892000  0.010010184  -0.15552004  -0.15552004  -0.13288678 -0.0010127361  -0.15552004  0.022633255   204120 
29893000  0.010167556  -0.15586749  -0.15586749  -0.13287841 -0.0017133624  -0.15586749  0.022989078   204120 
29894000 0.0098191681  -0.15505274  -0.15505274  -0.13285138  0.002247708  -0.15505274  0.022201364   204120 
29895000 0.0099418287  -0.15530953  -0.15530953  -0.13283082 0.00065035649  -0.15530953  0.022478703   204120 
29896000 0.0098239286    -0.154957    -0.154957  -0.13274487 0.0010168376    -0.154957  0.022212128   204120 
29897000  0.010039252  -0.15547277  -0.15547277  -0.13277379 0.0037815033  -0.15547277  0.022698979   204120 
29898000 0.0098999756  -0.15516572  -0.15516572  -0.13278154 0.0021122904  -0.15516572  0.022384181   204119 
29899000 0.0098595574  -0.15503963  -0.15503963  -0.13274683 -0.00041991959  -0.15503963  0.022292795   204119 
29900000 0.0099292846  -0.15521874  -0.15521874  -0.13276829 0.00076064412  -0.15521874   0.02245045   204119 
29901000 0.0096754048  -0.15466952  -0.15466952   -0.1327931 -0.001192831  -0.15466952  0.021876419   204119 
29902000 0.0097189848  -0.15476006  -0.15476006   -0.1327851 -0.00094916847  -0.15476006  0.021974955   204119 
29903000 0.0097185927  -0.15477482  -0.15477482  -0.13280076 -0.00047157963  -0.15477482  0.021974068   204119 
29904000 0.0099156429  -0.15523341  -0.15523341   -0.1328138 -0.0013594226  -0.15523341  0.022419606   204119 
29905000  0.009776683  -0.15493623  -0.15493623  -0.13283081 -0.00090027088  -0.15493623  0.022105413   204119 
29906000 0.0098966849  -0.15514963  -0.15514963  -0.13277289 0.0014739091  -0.15514963  0.022376741   204119 
29907000 0.0098436143  -0.15504902  -0.15504902  -0.13279228 -0.0021633417  -0.15504902  0.022256747   204119 
29908000 0.0099632506  -0.15528401  -0.15528401  -0.13275665 0.0023780704  -0.15528401  0.022527359   204118 
29909000  0.010077741  -0.15557717  -0.15557717  -0.13279083 0.00037443827  -0.15557717  0.022786339   204117 
29910000   0.01007525  -0.15555341  -0.15555341  -0.13277271 -0.00028323173  -0.15555341  0.022780705   204117 
29911000 0.0098382153  -0.15498129  -0.15498129  -0.13273653 -1.5618556e-05  -0.15498129  0.022244757   204117 
29912000 0.0099130528  -0.15517448  -0.15517448  -0.13276051 -0.00079850727  -0.15517448  0.022413969   204117 
29913000 0.0099275999  -0.15523268  -0.15523268  -0.13278582 0.00018673023  -0.15523268  0.022446861   204117 
29914000 0.0098969731  -0.15515373  -0.15515373  -0.13277612 -0.00089025941  -0.15515373  0.022377612   204117 
29915000  0.010062696  -0.15549055  -0.15549055  -0.13273812 0.0014428955  -0.15549055  0.022752433   204116 
29916000 0.0097888805  -0.15483005  -0.15483005  -0.13269673 0.0007939735  -0.15483005  0.022133317   204116 
29917000   0.01003935  -0.15537068  -0.15537068  -0.13267103 0.0014887758  -0.15537068  0.022699645   204116 
29918000  0.010011615  -0.15532573  -0.15532573   -0.1326888 0.00080627993  -0.15532573  0.022636934   204116 
29919000 0.0098904837  -0.15499176  -0.15499176  -0.13262871 0.00075901771  -0.15499176  0.022363049   204116 
29920000 0.0098981323  -0.15502469  -0.15502469  -0.13264435 0.0032029325  -0.15502469  0.022380343   204116 
29921000  0.010007599  -0.15520707  -0.15520707  -0.13257921 0.00011996171  -0.15520707  0.022627854   204116 
29922000 0.0098755822  -0.15489717  -0.15489717  -0.13256782 0.00039000074  -0.15489717  0.022329355   204116 
29923000  0.010120745  -0.15546963  -0.15546963  -0.13258572 -0.0006071501  -0.15546963   0.02288391   204114 
29924000 0.0098732612  -0.15493637  -0.15493637  -0.13261194 0.0015127127  -0.15493637  0.022324436   204113 
29925000 0.0098046144  -0.15475982  -0.15475982  -0.13259061 -0.0059915325  -0.15475982  0.022169218   204113 
29926000 0.0098782473   -0.1549185   -0.1549185  -0.13258279 0.0019877818   -0.1549185   0.02233571   204113 
29927000 0.0099755793  -0.15510949  -0.15510949  -0.13255371 0.00022024241  -0.15510949  0.022555787   204113 
29928000 0.0099222232  -0.15501682  -0.15501682  -0.13258156 0.00087153497  -0.15501682  0.022435254   204112 
29929000 0.0097615354  -0.15466969  -0.15466969  -0.13259777 0.00047252193  -0.15466969   0.02207192   204112 
29930000 0.0098896524  -0.15493265  -0.15493265  -0.13257105 -0.0023768478  -0.15493265  0.022361607   204112 
29931000 0.0097545811  -0.15460666  -0.15460666  -0.13255046 -0.0011094412  -0.15460666  0.022056196   204112 
29932000  0.009948149  -0.15504264  -0.15504264  -0.13254877 0.00080576797  -0.15504264  0.022493875   204112 
29933000 0.0098557332  -0.15483341  -0.15483341   -0.1325485 -0.00030342571  -0.15483341  0.022284912   204112 
29934000 0.0098626862  -0.15485025  -0.15485025  -0.13254961 0.0019021659  -0.15485025  0.022300634   204112 
29935000 0.0099362746  -0.15500545  -0.15500545  -0.13253842 0.0014529147  -0.15500545  0.022467025   204112 
29936000 0.0098676871  -0.15486647  -0.15486647  -0.13255453 -0.00069752948  -0.15486647  0.022311941   204112 
29937000  0.010116875  -0.15543871  -0.15543871  -0.13256322 0.0026123236  -0.15543871  0.022875494   204111 
29938000 0.0098903227  -0.15487568  -0.15487568  -0.13251245 0.00068778539  -0.15487568  0.022363232   204111 
29939000  0.010041021  -0.15524216  -0.15524216  -0.13253818 -0.0011047118  -0.15524216  0.022703981   204111 
29940000 0.0098668289  -0.15486682  -0.15486682  -0.13255671 -0.00089488997  -0.15486682   0.02231011   204111 
29941000 0.0099978477  -0.15518121  -0.15518121  -0.13257485 0.00086608935  -0.15518121   0.02260636   204111 
29942000 0.0098008462  -0.15469103  -0.15469103  -0.13253011 -0.00094596748  -0.15469103  0.022160915   204111 
29943000 0.0099964175  -0.15513451  -0.15513451  -0.13253127 -0.00084174843  -0.15513451  0.022603236   204110 
29944000 0.0099962954  -0.15510552  -0.15510552  -0.13250245 0.00033230478  -0.15510552  0.022603071   204109 
29945000 0.0098343627  -0.15475145  -0.15475145  -0.13251442 -0.0016067603  -0.15475145  0.022237027   204108 
29946000 0.0097765765  -0.15461622  -0.15461622  -0.13250986   0.00062944  -0.15461622  0.022106363   204108 
29947000 0.0099540266  -0.15496706  -0.15496706  -0.13245946 -9.3814507e-05  -0.15496706  0.022507605   204108 
29948000 0.0099053127  -0.15492569  -0.15492569  -0.13252824 -0.0041399808  -0.15492569  0.022397456   204108 
29949000  0.010055933  -0.15518961  -0.15518961  -0.13245158 -0.00073239095  -0.15518961  0.022738033   204108 
29950000 0.0098461939  -0.15472011  -0.15472011  -0.13245633 0.0014121891  -0.15472011  0.022263779   204108 
29951000 0.0099958353  -0.15501342  -0.15501342  -0.13241127 -0.00098785203  -0.15501342  0.022602141   204108 
29952000  0.009903694  -0.15480509  -0.15480509  -0.13241118 0.0015789779  -0.15480509  0.022393906   204107 
29953000 0.0098248969  -0.15462646  -0.15462646  -0.13241073 -0.0015045899  -0.15462646  0.022215732   204107 
29954000 0.0098837526  -0.15479863  -0.15479863  -0.13244982 0.00086272248  -0.15479863  0.022348814   204107 
29955000 0.0098003287  -0.15461549  -0.15461549  -0.13245531 -0.00077014011  -0.15461549  0.022160179   204107 
29956000 0.0099827669  -0.15502618  -0.15502618  -0.13245336 0.00072380512  -0.15502618  0.022572813   204106 
29957000  0.009946737  -0.15494197  -0.15494197  -0.13245051 -0.00016608224  -0.15494197  0.022491453   204105 
29958000 0.0097553526  -0.15441944  -0.15441944  -0.13236063 -0.0021160038  -0.15441944  0.022058805   204104 
29959000 0.0099778333  -0.15498488  -0.15498488    -0.132423 -3.1371144e-05  -0.15498488  0.022561878   204104 
29960000 0.0099539427  -0.15495275  -0.15495275  -0.13244489 -0.00012114903  -0.15495275  0.022507857   204104 
29961000 0.0099873315  -0.15498651  -0.15498651  -0.13240316 0.0014820568  -0.15498651  0.022583356   204104 
29962000 0.0098648403  -0.15475187  -0.15475187  -0.13244549 0.0041186977  -0.15475187  0.022306379   204104 
29963000 0.0097994754  -0.15459384  -0.15459384  -0.13243527 0.0014818025  -0.15459384  0.022158575   204104 
29964000 0.0099690648  -0.15498316  -0.15498316  -0.13244111 -0.00076412204  -0.15498316  0.022542051   204104 
29965000 0.0097935623  -0.15459636  -0.15459636  -0.13245105 0.00038984261  -0.15459636  0.022145313   204103 
29966000 0.0098590567  -0.15477606  -0.15477606  -0.13248254 6.1181226e-05  -0.15477606  0.022293519   204102 
29967000 0.0098390418  -0.15478159  -0.15478159  -0.13253333 -0.0014559789  -0.15478159  0.022248261   204102 
29968000  0.009908293  -0.15483272  -0.15483272  -0.13242787 0.0013749551  -0.15483272  0.022404853   204102 
29969000   0.00971565  -0.15446811  -0.15446811  -0.13249887 -0.00052815031  -0.15446811  0.021969245   204102 
29970000 0.0096146827  -0.15415414  -0.15415414  -0.13241299 -0.00024902018  -0.15415414  0.021741148   204100 
29971000 0.0098715695  -0.15471057  -0.15471057  -0.13238854 0.0010919392  -0.15471057  0.022322032   204100 
29972000 0.0098074627  -0.15457996  -0.15457996  -0.13240289 0.0011654077  -0.15457996  0.022177071   204100 
29973000 0.0096239464  -0.15412527  -0.15412527  -0.13236318 0.0022415871  -0.15412527  0.021762096   204100 
29974000 0.0098867175  -0.15476678  -0.15476678  -0.13241049 0.00070178669  -0.15476678  0.022356286   204100 
29975000 0.0098730637   -0.1547682   -0.1547682  -0.13244279 0.0020897682   -0.1547682  0.022325411   204100 
29976000 0.0097291061  -0.15439782  -0.15439782  -0.13239793 -0.0027893958  -0.15439782  0.021999887   204100 
29977000  0.009877233   -0.1547634   -0.1547634  -0.13242856 0.00039036021   -0.1547634  0.022334839   204100 
29978000 0.0098007074  -0.15459774  -0.15459774  -0.13243594 -0.00032608867  -0.15459774  0.022161796   204100 
29979000  0.009784448  -0.15455126  -0.15455126  -0.13242623 0.0014872865  -0.15455126  0.022125029   204100 
29980000 0.0098676707  -0.15474469  -0.15474469  -0.13243147 0.0017148243  -0.15474469  0.022313216   204100 
29981000 0.0098390467  -0.15465537  -0.15465537  -0.13240688 0.0025925077  -0.15465537   0.02224849   204100 
29982000 0.0098900051  -0.15473864  -0.15473864  -0.13237492 0.0022350351  -0.15473864   0.02236372   204100 
29983000 0.0098237053  -0.15459088  -0.15459088  -0.13237708 0.0032427579  -0.15459088    0.0222138   204100 
29984000 0.0098308182   -0.1545923   -0.1545923  -0.13236231 -0.00095555883   -0.1545923  0.022229992   204099 
29985000 0.0097579141  -0.15434047  -0.15434047  -0.13227533 0.00011810362  -0.15434047  0.022065138   204099 
29986000 0.0097608354  -0.15443056  -0.15443056  -0.13235882 0.00029628761  -0.15443056  0.022071743   204099 
29987000 0.0097988033  -0.15452593  -0.15452593  -0.13236822 0.0018134447  -0.15452593  0.022157707   204098 
29988000 0.0097201781  -0.15433332  -0.15433332   -0.1323534  0.002422092  -0.15433332  0.021979915   204098 
29989000 0.0098799194  -0.15465598  -0.15465598  -0.13231485 0.00047948511  -0.15465598  0.022341132   204098 
29990000 0.0098282947  -0.15450924  -0.15450924  -0.13228485 0.0018946609  -0.15450924  0.022224395   204098 
29991000 0.0098371835  -0.15449199  -0.15449199  -0.13224749 -0.0025076719  -0.15449199  0.022244495   204098 
29992000 0.0097026999  -0.15413885  -0.15413885  -0.13219846 0.0023242251  -0.15413885  0.021940392   204098 
29993000   0.01001557  -0.15489466  -0.15489466  -0.13224679 0.00062691968  -0.15489466  0.022647874   204098 
29994000 0.0097748623  -0.15438544  -0.15438544  -0.13228166 0.0014147979  -0.15438544  0.022103787   204096 
29995000  0.010068497  -0.15501353  -0.15501353  -0.13224575 0.0038372662  -0.15501353  0.022767781   204096 
29996000 0.0097829796  -0.15430162  -0.15430162  -0.13217948 -0.00070128712  -0.15430162  0.022122142   204096 
29997000 0.0098214303  -0.15439192  -0.15439192  -0.13218283 0.00054040548  -0.15439192   0.02220909   204096 
29998000 0.0097556998  -0.15422437  -0.15422437  -0.13216381 -0.00063957521  -0.15422437  0.022060563   204095 
29999000 0.0096147055  -0.15387421  -0.15387421  -0.13213248 0.0029313931  -0.15387421  0.021741733   204095 
30000000 0.0097994276   -0.1543036   -0.1543036  -0.13214416 0.0027728486   -0.1543036  0.022159444   204095 
Loop time of 100720 on 128 procs for 30000000 steps with 204095 atoms

Performance: 128673.753 tau/day, 297.856 timesteps/s
98.1% CPU use with 128 MPI tasks x 1 OpenMP threads

MPI task timing breakdown:
Section |  min time  |  avg time  |  max time  |%varavg|  %CPU | %total
-----------------------------------------------------------------------
Pair    | 4563.6     | 11981      | 19736      |2897.6 |  98.1 | 11.90
Bond    | 9.0022     | 12.197     | 33.514     |  89.7 | 100.0 |  0.01
Neigh   | 6457.8     | 15770      | 27654      |2976.3 |  99.1 | 15.66
Comm    | 32379      | 52574      | 68408      |2847.8 |  97.8 | 52.20
Output  | 1832.9     | 1838.9     | 1853.4     |  14.0 |  99.4 |  1.83
Modify  | 13617      | 16654      | 21063      |1273.5 |  97.9 | 16.53
Other   |            | 1890       |            |       |       |  1.88

Nlocal:        1594.49 ave        3796 max          54 min
Histogram: 6 7 15 31 37 20 4 6 1 1
Nghost:        5885.40 ave        9583 max        1313 min
Histogram: 11 6 11 9 15 14 16 17 19 10
Neighs:        1509.18 ave        5682 max           0 min
Histogram: 55 10 16 9 10 10 6 4 4 4

Total # of neighbors = 193175
Ave neighs/atom = 0.9464955
Ave special neighs/atom = 0.0000000
Neighbor list builds = 3151895
Dangerous builds = 2599002

Total wall time: 27:58:45
