LAMMPS (24 Dec 2020)
OMP_NUM_THREADS environment is not set. Defaulting to 1 thread. (src/comm.cpp:94)
  using 1 OpenMP thread(s) per MPI task
#Read the equilibrated lj fluid and add nanocubes

units           lj
atom_style      full
atom_modify     map array first cubes
dimension       3
boundary        p p f
pair_style      lj/cut/opt 2.5

variable        sigma           equal 1.0
variable        epsilon         equal 1.0
read_restart	restart.dat.10000000
Reading restart file ...
  restart file = 24 Dec 2020, LAMMPS = 24 Dec 2020
WARNING: Restart file used different # of processors: 288 vs. 1048 (src/read_restart.cpp:697)
  restoring atom style full from restart
  orthogonal box = (0.0000000 0.0000000 0.0000000) to (120.00000 120.00000 240.00000)
  2 by 4 by 131 MPI processor grid
  restoring pair style lj/cut/opt from restart
  1553347 atoms
Finding 1-2 1-3 1-4 neighbors ...
  special bond factors lj:    0        0        0       
  special bond factors coul:  0        0        0       
     0 = max # of 1-2 neighbors
     0 = max # of 1-3 neighbors
     0 = max # of 1-4 neighbors
     1 = max # of special neighbors
  special bonds CPU = 10.858 seconds
  read_restart CPU = 12.242 seconds

group		solvent type 1
1553347 atoms in group solvent

read_data	data3_450.cubes group cubes add append
Reading data file ...
  orthogonal box = (0.0000000 0.0000000 0.0000000) to (120.00000 120.00000 240.00000)
  2 by 4 by 131 MPI processor grid
  reading atoms ...
  560070 atoms
  reading velocities ...
  560070 velocities
Finding 1-2 1-3 1-4 neighbors ...
  special bond factors lj:    0        0        0       
  special bond factors coul:  0        0        0       
     0 = max # of 1-2 neighbors
     0 = max # of 1-3 neighbors
     0 = max # of 1-4 neighbors
     1 = max # of special neighbors
  special bonds CPU = 0.657 seconds
  read_data CPU = 4.860 seconds

group 		hull  type 2
218540 atoms in group hull
group 		dummy type 3
341530 atoms in group dummy

neighbor      0.4 bin
neigh_modify  exclude molecule/intra cubes


pair_modify   shift yes

pair_coeff    1 1 1.0 1.0 #solvent
pair_coeff    2 2 1.0 1.0 1.12 #np
pair_coeff    3 3 0.0 0.0 0.0 #dummy
pair_coeff    2 3 0.0 0.0 0.0 #np dummy
pair_coeff    1 2 ${sol} 1.0  #np solvent
pair_coeff    1 2 .575 1.0  
pair_coeff    1 3 0.0 0.0 2.5 #dummy solvent

# delete solvent where the cubes are
delete_atoms  overlap 1.0 solvent cubes
System init for delete_atoms ...
Unused restart file peratom fix info:
  fix style: STORE, fix ID: bin1_COMPUTE_STORE
Neighbor list info ...
  update every 1 steps, delay 10 steps, check yes
  max neighbors/atom: 2000, page size: 100000
  master list distance cutoff = 2.9
  ghost atom cutoff = 2.9
  binsize = 1.45, bins = 83 83 166
  2 neighbor lists, perpetual/occasional/extra = 1 1 0
  (1) command delete_atoms, occasional
      attributes: full, newton on
      pair build: full/bin
      stencil: full/bin/3d
      bin: standard
  (2) pair lj/cut/opt, perpetual
      attributes: half, newton on
      pair build: half/bin/newton
      stencil: half/bin/3d/newton
      bin: standard
WARNING: Delete_atoms cutoff > minimum neighbor cutoff (src/delete_atoms.cpp:307)
WARNING: Ignoring 'compress yes' for molecular system (src/delete_atoms.cpp:125)
Deleted 398981 atoms, new total = 1714436

pair_coeff    1 1 1.0 1.0 #solvent
pair_coeff    2 2 1.0 1.0 1.12 #np
pair_coeff    3 3 0.0 0.0 0.0 #dummy
pair_coeff    2 3 0.0 0.0 0.0 #np dummy
pair_coeff    1 2 ${sol} 1.0  #np solvent
pair_coeff    1 2 .575 1.0  
pair_coeff    1 3 0.0 0.0 0.0 #dummy solvent


comm_modify   mode multi cutoff/multi 1 2.5 cutoff/multi 2 2.5 cutoff/multi 3 6.96

reset_timestep 	0

balance 	1.05 shift z 10 1.05
Balancing ...
Neighbor list info ...
  update every 1 steps, delay 10 steps, check yes
  max neighbors/atom: 2000, page size: 100000
  master list distance cutoff = 2.9
  ghost atom cutoff = 6.96
  binsize = 1.45, bins = 83 83 166
  1 neighbor lists, perpetual/occasional/extra = 1 0 0
  (1) pair lj/cut/opt, perpetual
      attributes: half, newton on
      pair build: half/bin/newton
      stencil: half/bin/3d/newton
      bin: standard
 rebalancing time: 0.046 seconds
  iteration count = 4
  initial/final maximal load/proc = 2390.0000 2353.0000
  initial/final imbalance factor  = 1.4609586 1.4383412
  x cuts: 0.0000000 0.50000000 1.0000000
  y cuts: 0.0000000 0.25000000 0.50000000 0.75000000 1.0000000
  z cuts: 0.0000000 0.0090648855 0.015744275 0.021469466 0.027194656 0.032919847 0.038645038 0.044847328 0.050572519 0.056297710 0.062022901 0.068225191 0.072996183 0.080629771 0.085400763 0.093034351 0.097328244 0.10496183 0.10877863 0.11641221 0.12166031 0.12929389 0.13215649 0.13979008 0.14599237 0.14790076 0.15553435 0.16316794 0.17020591 0.17187424 0.17891221 0.18654580 0.19358377 0.19525211 0.20229008 0.20992366 0.21696163 0.21862997 0.22566794 0.23330153 0.24093511 0.24797309 0.24964142 0.25667939 0.26431298 0.27135095 0.27301928 0.28005725 0.28769084 0.29472881 0.29639714 0.30343511 0.31106870 0.31810667 0.31977501 0.32681298 0.33444656 0.34208015 0.34911812 0.35078646 0.35782443 0.36545802 0.37249599 0.37416432 0.38120229 0.38883588 0.39587385 0.39754218 0.40458015 0.41221374 0.41925171 0.42092004 0.42795802 0.43559160 0.44322519 0.45026316 0.45193149 0.45896947 0.46660305 0.47364102 0.47530936 0.48234733 0.48998092 0.49761450 0.50465247 0.50632081 0.51335878 0.52099237 0.52803034 0.52969867 0.53673664 0.54437023 0.55140820 0.55307653 0.56011450 0.56774809 0.57478606 0.57645440 0.58349237 0.59112595 0.59875954 0.60579751 0.60746585 0.61450382 0.62213740 0.62917538 0.63084371 0.63788168 0.64551527 0.65255324 0.65422157 0.66125954 0.66889313 0.67652672 0.68416031 0.69179389 0.69883186 0.70050020 0.70753817 0.71517176 0.72280534 0.73043893 0.73807252 0.74570611 0.75333969 0.76812977 0.80438931 0.84064885 0.87690840 0.91316794 0.95658397 1.0000000

####################### WALLS ###########################

variable       epsilonWall equal 2*${epsilon}
variable       epsilonWall equal 2*1
variable       repulsive   equal   0.7147*${sigma}
variable       repulsive   equal   0.7147*1
variable       full	   equal   3*${sigma}
variable       full	   equal   3*1
region         lowWall block EDGE EDGE EDGE EDGE EDGE 2

fix            topWall all wall/lj93 zhi EDGE 	       ${epsilonWall} ${sigma} ${repulsive} units box
fix            topWall all wall/lj93 zhi EDGE 	       2 ${sigma} ${repulsive} units box
fix            topWall all wall/lj93 zhi EDGE 	       2 1 ${repulsive} units box
fix            topWall all wall/lj93 zhi EDGE 	       2 1 0.7147 units box
fix            lowSol solvent wall/lj93 zlo EDGE                ${epsilonWall} ${sigma} ${full} units box
fix            lowSol solvent wall/lj93 zlo EDGE                2 ${sigma} ${full} units box
fix            lowSol solvent wall/lj93 zlo EDGE                2 1 ${full} units box
fix            lowSol solvent wall/lj93 zlo EDGE                2 1 3 units box
fix 	       lowCub cubes wall/lj93 zlo EDGE                ${epsilonWall} ${sigma} ${repulsive} units box
fix 	       lowCub cubes wall/lj93 zlo EDGE                2 ${sigma} ${repulsive} units box
fix 	       lowCub cubes wall/lj93 zlo EDGE                2 1 ${repulsive} units box
fix 	       lowCub cubes wall/lj93 zlo EDGE                2 1 0.7147 units box


###################### COMPUTES ##########################

compute        bin1 solvent chunk/atom bin/1d z lower 1.0 units box
compute        bin3 solvent chunk/atom bin/3d x lower 5.0 y lower 5.0 z lower 5.0 units box

compute 	pe solvent 	   pe/atom
compute 	pe2 all 	   pe/atom

######################  FIXES ############################


fix             peclet solvent ave/chunk 10 10 100000 bin1 density/number norm                  none ave one file density.profile

fix              temp solvent ave/chunk 10 10 100000 bin1 temp norm                  none ave one file temp.profile

fix 		 dens solvent ave/chunk 10 10 500000 bin3 density/number norm 		 none ave one file dens3.profile

fix 		pe solvent ave/chunk 1 1 500000 bin3 c_pe norm none ave one file pe3.profile
fix             1 cubes rigid/nve/small molecule
  create bodies CPU = 0.095 seconds
  490 rigid bodies with 560070 atoms
  6.9542847 = max distance from body owner to body atom

fix             2 solvent nve# temp ${temp} ${temp} 10


## Thermostat
region          regthermo block EDGE EDGE EDGE EDGE 0 15
group           thermo dynamic solvent region regthermo every 1000
dynamic group thermo defined
fix             3 thermo langevin ${temp} ${temp} 10 156453
fix             3 thermo langevin 1.0 ${temp} 10 156453
fix             3 thermo langevin 1.0 1.0 10 156453


#### Load balancing

fix             bal all balance 1000 1.05 shift z 10 1.05

############### Diagnostics and computes ###################


compute        	com cubes          rigid/local   1 mol x y z
compute        	quat cubes         rigid/local   1 mol quatw quati quatj quatk

compute 	cc2 cubes 	   chunk/atom 	 molecule
compute 	msd cubes 	   msd/chunk 	 cc2

fix 		msd all ave/time  1 1 10000 c_msd[*] file dump.msd ave one mode vector

dump            1 all custom 500000 dump.lammpstrj id mol type x y z vx vy vz c_pe2
dump		sol  solvent custom 500000 dump.soltrj id x y z vx vy vz c_pe
dump		cubetrj cubes custom 500000 cubes.lammpstrj id mol type x y z vx vy vz
#dump            com cubes local 100000 dump.*.xyz c_com[*]
#dump	        xyz hull xyz 100000 cubes.xyz
#dump            quat cubes      local 100000 dump.*.quat c_quat[*]
dump		order cubes 	local 500000 dump.*.order c_com[*] c_quat[*]
#dump		mol cubes molfile 10000 mol.xyz xyz


dump            2 all image 500000 image.*.png type type zoom 1.5 size 1280 720
dump_modify     2 pad 8
dump		image cubes image 500000 image_cubes.*.png type type zoom 1.5 size 1280 720
dump_modify	image pad 8
dump            3 all movie 10000 movie.avi type type zoom 1.5 size 1280 720
dump		4 cubes movie 10000 movie_cubes.avi type type size 1280 720


thermo          1000
thermo_style    custom step temp epair evdwl etotal press pe ke atoms

restart         1000000 restart.dat
timestep        0.005
timer           full
New timer settings: style=full  mode=nosync  timeout=off

run 		10000000
Per MPI rank memory allocation (min/avg/max) = 15.66 | 24.49 | 34.41 Mbytes
Step Temp E_pair E_vdwl TotEng Press PotEng KinEng Atoms 
       0    1.0089585   -2.1272669   -2.1272669   -1.1073731 -0.091230676   -2.1272669    1.0198938  1714436 
    1000    1.0062141   -2.1243676   -2.1243676   -1.1072478  0.074268953   -2.1243676    1.0171197  1714436 
    2000    1.0052999   -2.1234641   -2.1234641   -1.1072685  0.075258482   -2.1234641    1.0161955  1714436 
    3000    1.0049386   -2.1236474   -2.1236474   -1.1078171   0.07518699   -2.1236474    1.0158303  1714436 
    4000    1.0040602   -2.1232576   -2.1232576   -1.1083151  0.075363523   -2.1232576    1.0149425  1714436 
    5000    1.0053175   -2.1244896   -2.1244896   -1.1082762  0.068009236   -2.1244896    1.0162134  1714436 
    6000    1.0037624   -2.1230579   -2.1230579   -1.1084164  0.070626938   -2.1230579    1.0146415  1714436 
    7000    1.0018063    -2.121655    -2.121655   -1.1089909  0.069087136    -2.121655    1.0126641  1714436 
    8000    1.0016901   -2.1216019   -2.1216019   -1.1090553   0.06800454   -2.1216019    1.0125467  1714436 
    9000    1.0019834   -2.1220614   -2.1220614   -1.1092182  0.064493245   -2.1220614    1.0128431  1714436 
   10000    1.0016432    -2.121696    -2.121696   -1.1091967  0.062257771    -2.121696    1.0124992  1714436 
   11000     1.001147   -2.1218782   -2.1218782   -1.1098806  0.064507851   -2.1218782    1.0119977  1714436 
   12000    1.0004084    -2.120839    -2.120839    -1.109588  0.068241793    -2.120839    1.0112511  1714436 
   13000    1.0006086    -2.121296    -2.121296   -1.1098425  0.062774017    -2.121296    1.0114534  1714436 
   14000   0.99975219   -2.1205566   -2.1205566   -1.1099688  0.066799306   -2.1205566    1.0105878  1714436 
   15000    1.0011777   -2.1217607   -2.1217607    -1.109732  0.060938444   -2.1217607    1.0120287  1714436 
   16000    1.0002478    -2.120395    -2.120395   -1.1093063  0.064546782    -2.120395    1.0110887  1714436 
   17000    1.0010321   -2.1211773   -2.1211773   -1.1092958  0.062677615   -2.1211773    1.0118815  1714436 
   18000    1.0004004   -2.1204119   -2.1204119    -1.109169  0.068366483   -2.1204119     1.011243  1714436 
   19000    0.9986541   -2.1190617   -2.1190617   -1.1095839  0.063435201   -2.1190617    1.0094778  1714436 
   20000   0.99930464   -2.1188338   -2.1188338   -1.1086985  0.059925946   -2.1188338    1.0101354  1714436 
   21000   0.99964475   -2.1184881   -2.1184881   -1.1080089  0.064301936   -2.1184881    1.0104792  1714436 
   22000   0.99903833   -2.1170656   -2.1170656   -1.1071994  0.061770844   -2.1170656    1.0098662  1714436 
   23000   0.99972298   -2.1183034   -2.1183034   -1.1077452  0.061504877   -2.1183034    1.0105582  1714436 
   24000   0.99938547   -2.1176146   -2.1176146   -1.1073976   0.06455341   -2.1176146    1.0102171  1714436 
   25000    1.0001817   -2.1181169   -2.1181169    -1.107095  0.064710105   -2.1181169    1.0110219  1714436 
   26000   0.99980299   -2.1177098   -2.1177098   -1.1070707  0.066129195   -2.1177098    1.0106391  1714436 
   27000   0.99939862   -2.1172843   -2.1172843   -1.1070539  0.061220917   -2.1172843    1.0102304  1714436 
   28000   0.99973077   -2.1170625   -2.1170625   -1.1064964  0.059577567   -2.1170625    1.0105661  1714436 
   29000   0.99955116   -2.1169781   -2.1169781   -1.1065936  0.062274201   -2.1169781    1.0103846  1714436 
   30000    0.9990769   -2.1167458   -2.1167458   -1.1068407  0.062128754   -2.1167458    1.0099051  1714436 
   31000   0.99963063   -2.1172165   -2.1172165   -1.1067516  0.059800608   -2.1172165    1.0104649  1714436 
   32000   0.99980174   -2.1166624   -2.1166624   -1.1060246  0.060239824   -2.1166624    1.0106378  1714436 
   33000   0.99930334   -2.1163796   -2.1163796   -1.1062455  0.060198962   -2.1163796     1.010134  1714436 
   34000   0.99918915   -2.1161921   -2.1161921   -1.1061735   0.06425998   -2.1161921    1.0100186  1714436 
   35000   0.99852418   -2.1154731   -2.1154731   -1.1061267  0.060773152   -2.1154731    1.0093464  1714436 
   36000   0.99875548   -2.1156891   -2.1156891   -1.1061088  0.060180316   -2.1156891    1.0095802  1714436 
   37000   0.99877009   -2.1157728   -2.1157728   -1.1061778  0.064009909   -2.1157728     1.009595  1714436 
   38000   0.99906911   -2.1161879   -2.1161879   -1.1062907  0.061114032   -2.1161879    1.0098973  1714436 
   39000    0.9986613   -2.1158086   -2.1158086   -1.1063235  0.061702512   -2.1158086    1.0094851  1714436 
   40000   0.99836089   -2.1157074   -2.1157074    -1.106526  0.060451475   -2.1157074    1.0091814  1714436 
   41000   0.99856742   -2.1163255   -2.1163255   -1.1069353  0.064903509   -2.1163255    1.0093902  1714436 
   42000   0.99755906   -2.1149922   -2.1149922   -1.1066213  0.064193327   -2.1149922    1.0083709  1714436 
   43000   0.99856156   -2.1161783   -2.1161783   -1.1067941  0.059744452   -2.1161783    1.0093842  1714436 
   44000   0.99857725   -2.1160256   -2.1160256   -1.1066255  0.062814935   -2.1160256    1.0094001  1714436 
   45000   0.99907342   -2.1159672   -2.1159672   -1.1060655  0.062632522   -2.1159672    1.0099016  1714436 
   46000   0.99918806   -2.1162893   -2.1162893   -1.1062718   0.06179634   -2.1162893    1.0100175  1714436 
   47000   0.99841417   -2.1160197   -2.1160197   -1.1067845  0.057036603   -2.1160197    1.0092352  1714436 
   48000   0.99852202   -2.1160144   -2.1160144   -1.1066702  0.060472684   -2.1160144    1.0093443  1714436 
   49000   0.99961985   -2.1169365   -2.1169365   -1.1064825  0.061473678   -2.1169365     1.010454  1714436 
   50000    1.0000905   -2.1170788   -2.1170788   -1.1061491  0.060605452   -2.1170788    1.0109297  1714436 
   51000    1.0008297   -2.1176278   -2.1176278   -1.1059509  0.062303717   -2.1176278     1.011677  1714436 
   52000   0.99991427   -2.1163174   -2.1163174   -1.1055658  0.062482319   -2.1163174    1.0107516  1714436 
   53000    1.0000378   -2.1166997   -2.1166997   -1.1058232  0.064514429   -2.1166997    1.0108765  1714436 
   54000    1.0001887   -2.1165646   -2.1165646   -1.1055356  0.061511633   -2.1165646     1.011029  1714436 
   55000    1.0017583   -2.1181193   -2.1181193   -1.1055037  0.063573158   -2.1181193    1.0126156  1714436 
   56000    1.0013299   -2.1178132   -2.1178132   -1.1056306  0.062799536   -2.1178132    1.0121826  1714436 
   57000    1.0010196   -2.1176698   -2.1176698   -1.1058009   0.06493529   -2.1176698    1.0118689  1714436 
   58000    1.0021933   -2.1192757   -2.1192757   -1.1062204  0.059521382   -2.1192757    1.0130553  1714436 
   59000    1.0015643   -2.1185023   -2.1185023   -1.1060828  0.066745878   -2.1185023    1.0124195  1714436 
   60000    1.0017005   -2.1187956   -2.1187956   -1.1062384  0.066336512   -2.1187956    1.0125572  1714436 
   61000    1.0009238   -2.1183122   -2.1183122     -1.10654  0.069119375   -2.1183122    1.0117721  1714436 
   62000    1.0018848   -2.1190257   -2.1190257   -1.1062822  0.064862354   -2.1190257    1.0127435  1714436 
   63000    1.0015695   -2.1190015   -2.1190015   -1.1065767  0.061090791   -2.1190015    1.0124248  1714436 
   64000    1.0017402   -2.1194566   -2.1194566   -1.1068593  0.065385115   -2.1194566    1.0125973  1714436 
   65000     1.002159   -2.1200299   -2.1200299   -1.1070092  0.066355595   -2.1200299    1.0130207  1714436 
   66000    1.0018826   -2.1200946   -2.1200946   -1.1073533  0.063462351   -2.1200946    1.0127413  1714436 
   67000    1.0017174   -2.1203862   -2.1203862   -1.1078119  0.062753079   -2.1203862    1.0125743  1714436 
   68000    1.0005413   -2.1194368   -2.1194368   -1.1080514  0.069315619   -2.1194368    1.0113854  1714436 
   69000    1.0019083   -2.1207191   -2.1207191   -1.1079518  0.066731215   -2.1207191    1.0127673  1714436 
   70000    1.0013617   -2.1199409   -2.1199409   -1.1077262  0.064795465   -2.1199409    1.0122147  1714436 
   71000    1.0017514   -2.1206112   -2.1206112   -1.1080025  0.062979571   -2.1206112    1.0126087  1714436 
   72000    1.0014169   -2.1204117   -2.1204117   -1.1081411   0.06670606   -2.1204117    1.0122705  1714436 
   73000    1.0014847   -2.1205731   -2.1205731   -1.1082341  0.068316347   -2.1205731    1.0123391  1714436 
   74000    1.0014978   -2.1208308   -2.1208308   -1.1084785  0.068430744   -2.1208308    1.0123523  1714436 
   75000    1.0023473   -2.1209842   -2.1209842   -1.1077732  0.068039159   -2.1209842     1.013211  1714436 
   76000    1.0011007   -2.1204102   -2.1204102   -1.1084592  0.067166159   -2.1204102    1.0119509  1714436 
   77000    1.0004979   -2.1195901   -2.1195901   -1.1082485  0.065029893   -2.1195901    1.0113416  1714436 
   78000    1.0018128   -2.1203945   -2.1203945   -1.1077238  0.064462547   -2.1203945    1.0126707  1714436 
   79000     1.002495   -2.1211893   -2.1211893    -1.107829  0.065872331   -2.1211893    1.0133603  1714436 
   80000    1.0018719   -2.1203814   -2.1203814   -1.1076509  0.069356097   -2.1203814    1.0127305  1714436 
   81000    1.0028129   -2.1211593   -2.1211593   -1.1074777  0.066810726   -2.1211593    1.0136816  1714436 
   82000    1.0021637   -2.1206097   -2.1206097   -1.1075843  0.068199352   -2.1206097    1.0130254  1714436 
   83000      1.00244   -2.1211105   -2.1211105   -1.1078059  0.064678142   -2.1211105    1.0133047  1714436 
   84000    1.0016684   -2.1200042   -2.1200042   -1.1074794  0.064996457   -2.1200042    1.0125248  1714436 
   85000    1.0026632   -2.1206763   -2.1206763    -1.107146  0.065447656   -2.1206763    1.0135303  1714436 
   86000    1.0013326   -2.1191821   -2.1191821   -1.1069968  0.069225584   -2.1191821    1.0121853  1714436 
   87000    1.0012356   -2.1189906   -2.1189906   -1.1069034  0.063313569   -2.1189906    1.0120872  1714436 
   88000    1.0017449   -2.1195513   -2.1195513   -1.1069493  0.063088961   -2.1195513     1.012602  1714436 
   89000     1.001563   -2.1196961   -2.1196961    -1.107278  0.061816917   -2.1196961    1.0124182  1714436 
   90000    1.0009606   -2.1185079   -2.1185079   -1.1066986  0.064436371   -2.1185079    1.0118093  1714436 
   91000    1.0004585   -2.1177606   -2.1177606   -1.1064589  0.064294001   -2.1177606    1.0113017  1714436 
   92000    1.0018952   -2.1190128   -2.1190128   -1.1062588  0.069271835   -2.1190128     1.012754  1714436 
   93000    1.0010567   -2.1184506   -2.1184506   -1.1065442  0.063580884   -2.1184506    1.0119064  1714436 
   94000     1.001504   -2.1185549   -2.1185549   -1.1061964  0.063762217   -2.1185549    1.0123585  1714436 
   95000    1.0008209   -2.1179919   -2.1179919   -1.1063238  0.066726273   -2.1179919    1.0116681  1714436 
   96000    1.0011204   -2.1182216   -2.1182216   -1.1062508  0.065682423   -2.1182216    1.0119708  1714436 
   97000    1.0009182   -2.1178567   -2.1178567   -1.1060903  0.068170283   -2.1178567    1.0117664  1714436 
   98000    1.0017328   -2.1182291   -2.1182291   -1.1056392  0.060659001   -2.1182291    1.0125899  1714436 
   99000    1.0002954   -2.1167109   -2.1167109    -1.105574   0.07033328   -2.1167109    1.0111369  1714436 
  100000    1.0004816   -2.1169055   -2.1169055   -1.1055804  0.064505259   -2.1169055    1.0113251  1714436 
  101000    1.0012175   -2.1180175   -2.1180175   -1.1059485  0.063252599   -2.1180175     1.012069  1714436 
  102000    1.0005217   -2.1169648   -2.1169648   -1.1055992   0.06338965   -2.1169648    1.0113656  1714436 
  103000    1.0004136   -2.1168634   -2.1168634    -1.105607  0.061906498   -2.1168634    1.0112564  1714436 
  104000    1.0000287    -2.116626    -2.116626   -1.1057587  0.069206219    -2.116626    1.0108673  1714436 
  105000    1.0002019   -2.1164175   -2.1164175   -1.1053751  0.068252376   -2.1164175    1.0110424  1714436 
  106000    1.0003672   -2.1166577   -2.1166577   -1.1054482  0.061963083   -2.1166577    1.0112094  1714436 
  107000    1.0006857   -2.1167933   -2.1167933   -1.1052619  0.063937668   -2.1167933    1.0115314  1714436 
  108000    1.0003295   -2.1163632   -2.1163632   -1.1051919  0.061036549   -2.1163632    1.0111713  1714436 
  109000    1.0004114   -2.1166367   -2.1166367   -1.1053827   0.06399298   -2.1166367    1.0112541  1714436 
  110000    1.0000222   -2.1161305   -2.1161305   -1.1052698  0.063996498   -2.1161305    1.0108607  1714436 
  111000   0.99998938   -2.1160854   -2.1160854   -1.1052579  0.064816423   -2.1160854    1.0108275  1714436 
  112000    1.0005546   -2.1162349   -2.1162349   -1.1048361  0.063749639   -2.1162349    1.0113988  1714436 
  113000   0.99995733   -2.1151692   -2.1151692   -1.1043741  0.063980534   -2.1151692    1.0107951  1714436 
  114000    1.0009636   -2.1159757   -2.1159757   -1.1041634  0.058838139   -2.1159757    1.0118123  1714436 
  115000     1.000746   -2.1157489   -2.1157489   -1.1041565   0.06469812   -2.1157489    1.0115924  1714436 
  116000    1.0011662   -2.1161025   -2.1161025   -1.1040854  0.063825033   -2.1161025    1.0120171  1714436 
  117000    1.0000117    -2.115303    -2.115303   -1.1044529  0.063242204    -2.115303    1.0108501  1714436 
  118000   0.99994152   -2.1152016   -2.1152016   -1.1044225  0.062833798   -2.1152016    1.0107791  1714436 
  119000   0.99993088   -2.1154226   -2.1154226   -1.1046542  0.064746215   -2.1154226    1.0107684  1714436 
  120000    1.0009174   -2.1165054   -2.1165054   -1.1047398   0.06667423   -2.1165054    1.0117656  1714436 
  121000    1.0005564   -2.1158106   -2.1158106     -1.10441  0.064652641   -2.1158106    1.0114007  1714436 
  122000    1.0014036   -2.1165487   -2.1165487   -1.1042916  0.061258195   -2.1165487    1.0122571  1714436 
  123000     1.000627    -2.115841    -2.115841   -1.1043689  0.064776814    -2.115841    1.0114721  1714436 
  124000    1.0001754   -2.1159183   -2.1159183   -1.1049028  0.060605502   -2.1159183    1.0110155  1714436 
  125000     1.000457   -2.1160676   -2.1160676   -1.1047675  0.064098685   -2.1160676    1.0113002  1714436 
  126000     1.000866   -2.1167054   -2.1167054   -1.1049918   0.06346891   -2.1167054    1.0117136  1714436 
  127000    1.0001758   -2.1158208   -2.1158208   -1.1048047  0.061262702   -2.1158208     1.011016  1714436 
  128000   0.99986585   -2.1156201   -2.1156201   -1.1049174  0.059437442   -2.1156201    1.0107027  1714436 
  129000   0.99998245   -2.1158012   -2.1158012   -1.1049807  0.061097306   -2.1158012    1.0108205  1714436 
  130000    1.0010562   -2.1166624   -2.1166624   -1.1047565  0.063879567   -2.1166624    1.0119059  1714436 
  131000    1.0000931   -2.1155626   -2.1155626   -1.1046302  0.065772003   -2.1155626    1.0109323  1714436 
  132000    1.0012688    -2.116553    -2.116553   -1.1044322  0.061443403    -2.116553    1.0121208  1714436 
  133000    1.0009938   -2.1163546   -2.1163546   -1.1045118  0.059912002   -2.1163546    1.0118428  1714436 
  134000    1.0004527   -2.1160238   -2.1160238   -1.1047279  0.062558339   -2.1160238    1.0112959  1714436 
  135000     1.001251   -2.1167328   -2.1167328     -1.10463   0.06317061   -2.1167328    1.0121028  1714436 
  136000    1.0010665   -2.1167549   -2.1167549   -1.1048385  0.064668165   -2.1167549    1.0119164  1714436 
  137000    1.0020631   -2.1173223   -2.1173223   -1.1043986   0.06674714   -2.1173223    1.0129237  1714436 
  138000    1.0017995   -2.1170676   -2.1170676   -1.1044104   0.06530994   -2.1170676    1.0126573  1714436 
  139000    1.0016461   -2.1169514   -2.1169514   -1.1044492  0.062532582   -2.1169514    1.0125022  1714436 
  140000    1.0022056   -2.1175336   -2.1175336   -1.1044658  0.072003149   -2.1175336    1.0130677  1714436 
  141000    1.0018294   -2.1175148   -2.1175148   -1.1048273  0.062166352   -2.1175148    1.0126875  1714436 
  142000    1.0017914   -2.1173639   -2.1173639   -1.1047148  0.062531734   -2.1173639    1.0126491  1714436 
  143000    1.0008076   -2.1166805   -2.1166805   -1.1050259  0.064453618   -2.1166805    1.0116546  1714436 
  144000    1.0016841   -2.1177603   -2.1177603   -1.1052197  0.065668827   -2.1177603    1.0125406  1714436 
  145000     1.001433   -2.1173883   -2.1173883   -1.1051015  0.066258749   -2.1173883    1.0122868  1714436 
  146000    1.0015202   -2.1178996   -2.1178996   -1.1055247  0.067700469   -2.1178996    1.0123749  1714436 
  147000    1.0011949   -2.1176336   -2.1176336   -1.1055874  0.063466555   -2.1176336    1.0120462  1714436 
  148000    1.0012051   -2.1178218   -2.1178218   -1.1057654  0.066965501   -2.1178218    1.0120564  1714436 
  149000    1.0014122   -2.1178129   -2.1178129   -1.1055472  0.063762984   -2.1178129    1.0122658  1714436 
  150000    1.0013027   -2.1179507   -2.1179507   -1.1057955  0.065979916   -2.1179507    1.0121551  1714436 
  151000    1.0015643   -2.1181341   -2.1181341   -1.1057145  0.062662287   -2.1181341    1.0124195  1714436 
  152000    1.0014779   -2.1180515   -2.1180515   -1.1057193  0.063067159   -2.1180515    1.0123322  1714436 
  153000    1.0016551   -2.1183369   -2.1183369   -1.1058256  0.061020724   -2.1183369    1.0125113  1714436 
  154000    1.0012328   -2.1184245   -2.1184245   -1.1063401  0.064159958   -2.1184245    1.0120844  1714436 
  155000    1.0010214   -2.1182599   -2.1182599   -1.1063892  0.065650749   -2.1182599    1.0118707  1714436 
  156000    1.0011691   -2.1186564   -2.1186564   -1.1066364  0.061531248   -2.1186564      1.01202  1714436 
  157000     1.001111   -2.1186124   -2.1186124   -1.1066511  0.061466433   -2.1186124    1.0119613  1714436 
  158000     1.000485   -2.1177091   -2.1177091   -1.1063806  0.066566253   -2.1177091    1.0113285  1714436 
  159000    1.0009022   -2.1181067   -2.1181067   -1.1063565  0.061848639   -2.1181067    1.0117502  1714436 
  160000    1.0012357   -2.1183794   -2.1183794    -1.106292  0.064116297   -2.1183794    1.0120873  1714436 
  161000    1.0010944   -2.1179556   -2.1179556   -1.1060111  0.065926824   -2.1179556    1.0119445  1714436 
  162000    1.0020116   -2.1193091   -2.1193091   -1.1064374  0.063424089   -2.1193091    1.0128717  1714436 
  163000    1.0017503   -2.1191582   -2.1191582   -1.1065506  0.063905565   -2.1191582    1.0126075  1714436 
  164000    1.0009803    -2.118098    -2.118098   -1.1062688  0.066745797    -2.118098    1.0118292  1714436 
  165000    1.0020467   -2.1191954   -2.1191954   -1.1062882  0.067288699   -2.1191954    1.0129072  1714436 
  166000    1.0006646   -2.1180951   -2.1180951    -1.106585   0.06453077   -2.1180951    1.0115101  1714436 
  167000    1.0015855   -2.1187427   -2.1187427   -1.1063018  0.064787958   -2.1187427     1.012441  1714436 
  168000    1.0019987   -2.1192667   -2.1192667   -1.1064081  0.063464483   -2.1192667    1.0128586  1714436 
  169000    1.0021279   -2.1188911   -2.1188911    -1.105902  0.059732835   -2.1188911    1.0129892  1714436 
  170000     1.002028   -2.1188347   -2.1188347   -1.1059465  0.066744679   -2.1188347    1.0128882  1714436 
  171000    1.0013248   -2.1185013   -2.1185013   -1.1063239  0.061347121   -2.1185013    1.0121775  1714436 
  172000    1.0023294   -2.1195049   -2.1195049   -1.1063119  0.066311387   -2.1195049    1.0131929  1714436 
  173000    1.0029588   -2.1200359   -2.1200359   -1.1062067  0.062815441   -2.1200359    1.0138291  1714436 
  174000    1.0011031   -2.1178495   -2.1178495   -1.1058962  0.065179183   -2.1178495    1.0119533  1714436 
  175000    1.0007013   -2.1174411   -2.1174411    -1.105894  0.066389219   -2.1174411    1.0115471  1714436 
  176000    1.0003948   -2.1170423   -2.1170423   -1.1058049  0.066746183   -2.1170423    1.0112374  1714436 
  177000     1.000543    -2.117446    -2.117446   -1.1060589  0.066800099    -2.117446    1.0113871  1714436 
  178000    1.0008311   -2.1175545   -2.1175545   -1.1058761  0.067424736   -2.1175545    1.0116784  1714436 
  179000    1.0010269   -2.1178894   -2.1178894   -1.1060131  0.065843782   -2.1178894    1.0118762  1714436 
  180000    1.0006539   -2.1180612   -2.1180612   -1.1065619  0.064774586   -2.1180612    1.0114993  1714436 
  181000    1.0010708   -2.1185462   -2.1185462   -1.1066255  0.066735967   -2.1185462    1.0119207  1714436 
  182000    1.0000755   -2.1171455   -2.1171455    -1.106231  0.064388018   -2.1171455    1.0109145  1714436 
  183000    1.0004406   -2.1177056   -2.1177056   -1.1064219  0.064112644   -2.1177056    1.0112837  1714436 
  184000     1.000525   -2.1176584   -2.1176584   -1.1062895    0.0630417   -2.1176584    1.0113689  1714436 
  185000    1.0006282   -2.1176392   -2.1176392   -1.1061659  0.063212883   -2.1176392    1.0114733  1714436 
  186000   0.99978038     -2.11703     -2.11703   -1.1064137  0.065571301     -2.11703    1.0106163  1714436 
  187000    1.0003829   -2.1175914   -2.1175914   -1.1063661  0.066619349   -2.1175914    1.0112253  1714436 
  188000    1.0005413   -2.1171421   -2.1171421   -1.1057567  0.062220747   -2.1171421    1.0113854  1714436 
  189000   0.99973896   -2.1164215   -2.1164215   -1.1058471  0.070629621   -2.1164215    1.0105744  1714436 
  190000    1.0003667   -2.1169886   -2.1169886   -1.1057797  0.063264626   -2.1169886     1.011209  1714436 
  191000   0.99981469   -2.1166456   -2.1166456   -1.1059947  0.064242971   -2.1166456    1.0106509  1714436 
  192000    1.0001626   -2.1169126   -2.1169126   -1.1059099  0.061969854   -2.1169126    1.0110026  1714436 
  193000   0.99995171   -2.1163761   -2.1163761   -1.1055866  0.061862517   -2.1163761    1.0107894  1714436 
  194000    1.0012063    -2.118025    -2.118025   -1.1059674  0.061081525    -2.118025    1.0120576  1714436 
  195000    1.0004854   -2.1170814   -2.1170814   -1.1057525  0.065873917   -2.1170814    1.0113289  1714436 
  196000    1.0008153   -2.1172182   -2.1172182   -1.1055558  0.064445864   -2.1172182    1.0116624  1714436 
  197000   0.99955248   -2.1159515   -2.1159515   -1.1055656  0.061257145   -2.1159515    1.0103859  1714436 
  198000    1.0001104   -2.1168032   -2.1168032   -1.1058534  0.061929868   -2.1168032    1.0109498  1714436 
  199000    1.0001911   -2.1166331   -2.1166331   -1.1056017  0.064002647   -2.1166331    1.0110314  1714436 
  200000   0.99922749   -2.1153575   -2.1153575   -1.1053001  0.065451885   -2.1153575    1.0100574  1714436 
  201000    1.0003157   -2.1163843   -2.1163843   -1.1052269  0.063507406   -2.1163843    1.0111573  1714436 
  202000    1.0002738   -2.1158634   -2.1158634   -1.1047484  0.065096967   -2.1158634     1.011115  1714436 
  203000    1.0007105   -2.1163291   -2.1163291   -1.1047727  0.062071809   -2.1163291    1.0115564  1714436 
  204000   0.99972252   -2.1151453   -2.1151453   -1.1045875  0.067197326   -2.1151453    1.0105578  1714436 
  205000   0.99958626   -2.1151334   -2.1151334   -1.1047134  0.065789503   -2.1151334      1.01042  1714436 
  206000   0.99952861   -2.1153642   -2.1153642   -1.1050024  0.060481113   -2.1153642    1.0103618  1714436 
  207000   0.99990682   -2.1158146   -2.1158146   -1.1050705   0.06368415   -2.1158146    1.0107441  1714436 
  208000    1.0004023   -2.1161617   -2.1161617   -1.1049168  0.064906816   -2.1161617    1.0112449  1714436 
  209000    1.0003187   -2.1160023   -2.1160023   -1.1048419  0.064710543   -2.1160023    1.0111604  1714436 
  210000    1.0007632   -2.1165975   -2.1165975   -1.1049878  0.062601537   -2.1165975    1.0116097  1714436 
  211000    1.0016084   -2.1172554   -2.1172554   -1.1047913  0.066866985   -2.1172554    1.0124641  1714436 
  212000    1.0010973   -2.1164266   -2.1164266   -1.1044791  0.067859851   -2.1164266    1.0119474  1714436 
  213000    1.0021519    -2.117399    -2.117399   -1.1043855  0.064291532    -2.117399    1.0130135  1714436 
  214000    1.0013622   -2.1167537   -2.1167537   -1.1045385  0.063575789   -2.1167537    1.0122152  1714436 
  215000    1.0017077   -2.1170507   -2.1170507   -1.1044862  0.064270091   -2.1170507    1.0125645  1714436 
  216000    1.0013705   -2.1167482   -2.1167482   -1.1045246  0.065406051   -2.1167482    1.0122236  1714436 
  217000    1.0008802   -2.1164472   -2.1164472   -1.1047193  0.065772837   -2.1164472     1.011728  1714436 
  218000    1.0023173   -2.1178413   -2.1178413   -1.1046607  0.063044629   -2.1178413    1.0131806  1714436 
  219000    1.0022422   -2.1176803   -2.1176803   -1.1045755  0.064704684   -2.1176803    1.0131048  1714436 
  220000    1.0016426   -2.1170805   -2.1170805   -1.1045818   0.06636674   -2.1170805    1.0124987  1714436 
  221000    1.0010906   -2.1169375   -2.1169375   -1.1049969   0.06271417   -2.1169375    1.0119407  1714436 
  222000    1.0003935    -2.115598    -2.115598    -1.104362  0.066980752    -2.115598     1.011236  1714436 
  223000    1.0013846   -2.1166395   -2.1166395   -1.1044017  0.061388747   -2.1166395    1.0122378  1714436 
  224000    1.0013141   -2.1167733   -2.1167733   -1.1046066  0.062084919   -2.1167733    1.0121666  1714436 
  225000    1.0004294   -2.1157036   -2.1157036   -1.1044313  0.066669512   -2.1157036    1.0112723  1714436 
  226000    1.0008956   -2.1165113   -2.1165113   -1.1047678    0.0612157   -2.1165113    1.0117436  1714436 
  227000    1.0020327   -2.1171231   -2.1171231   -1.1042301  0.062348228   -2.1171231     1.012893  1714436 
  228000     1.000976   -2.1162029   -2.1162029   -1.1043781  0.063004765   -2.1162029    1.0118248  1714436 
  229000    1.0003931   -2.1162202   -2.1162202   -1.1049846  0.064928153   -2.1162202    1.0112356  1714436 
  230000    1.0012735   -2.1172584   -2.1172584   -1.1051328   0.06304977   -2.1172584    1.0121256  1714436 
  231000   0.99982206   -2.1154024   -2.1154024    -1.104744  0.061682901   -2.1154024    1.0106584  1714436 
  232000    1.0009425   -2.1165777   -2.1165777   -1.1047867  0.063975269   -2.1165777     1.011791  1714436 
  233000     1.001877   -2.1173851   -2.1173851   -1.1046495  0.059672414   -2.1173851    1.0127356  1714436 
  234000    1.0018245   -2.1180404   -2.1180404   -1.1053578  0.063937663   -2.1180404    1.0126826  1714436 
  235000    1.0012958   -2.1172648   -2.1172648   -1.1051167  0.062349984   -2.1172648    1.0121481  1714436 
  236000    1.0024115   -2.1175743   -2.1175743   -1.1042984  0.065249469   -2.1175743    1.0132759  1714436 
  237000    1.0015378   -2.1170688   -2.1170688    -1.104676  0.061425511   -2.1170688    1.0123928  1714436 
  238000    1.0023503    -2.117916    -2.117916   -1.1047019  0.065187037    -2.117916    1.0132141  1714436 
  239000    1.0024048   -2.1180444   -2.1180444   -1.1047754  0.064254012   -2.1180444    1.0132691  1714436 
  240000    1.0021907    -2.118024    -2.118024   -1.1049713  0.062355061    -2.118024    1.0130527  1714436 
  241000    1.0002899   -2.1164286   -2.1164286   -1.1052973  0.061913488   -2.1164286    1.0111313  1714436 
  242000    1.0016445   -2.1173464   -2.1173464   -1.1048458  0.066747864   -2.1173464    1.0125005  1714436 
  243000    1.0010161   -2.1164773   -2.1164773   -1.1046119  0.064872864   -2.1164773    1.0118654  1714436 
  244000    1.0015079   -2.1173272   -2.1173272   -1.1049647  0.066719376   -2.1173272    1.0123625  1714436 
  245000    1.0012189   -2.1170669   -2.1170669   -1.1049965  0.068128524   -2.1170669    1.0120704  1714436 
  246000    1.0019121   -2.1177122   -2.1177122   -1.1049412  0.061911862   -2.1177122     1.012771  1714436 
  247000    1.0016159   -2.1175358   -2.1175358   -1.1050642  0.064879273   -2.1175358    1.0124716  1714436 
  248000    1.0005702    -2.116146    -2.116146   -1.1047314  0.066781372    -2.116146    1.0114146  1714436 
  249000    1.0018267   -2.1178385   -2.1178385   -1.1051537  0.062274112   -2.1178385    1.0126848  1714436 
  250000    1.0013622   -2.1171925   -2.1171925   -1.1049773  0.067484093   -2.1171925    1.0122153  1714436 
  251000    1.0015229   -2.1168666   -2.1168666   -1.1044889  0.064655228   -2.1168666    1.0123777  1714436 
  252000    1.0013684   -2.1169008   -2.1169008   -1.1046792  0.065748218   -2.1169008    1.0122215  1714436 
  253000    1.0014429   -2.1168001   -2.1168001   -1.1045034  0.064014022   -2.1168001    1.0122968  1714436 
  254000    1.0007973   -2.1161304   -2.1161304   -1.1044862  0.065263521   -2.1161304    1.0116442  1714436 
  255000    1.0003229   -2.1156727   -2.1156727   -1.1045081  0.065576022   -2.1156727    1.0111646  1714436 
  256000     1.000108   -2.1156416   -2.1156416   -1.1046942  0.065444548   -2.1156416    1.0109474  1714436 
  257000    1.0017227   -2.1167811   -2.1167811   -1.1042014  0.067177631   -2.1167811    1.0125797  1714436 
  258000    1.0011926   -2.1160442   -2.1160442   -1.1040004  0.063485069   -2.1160442    1.0120438  1714436 
  259000    1.0022966   -2.1172184   -2.1172184   -1.1040587  0.064424442   -2.1172184    1.0131597  1714436 
  260000    1.0011603   -2.1157554   -2.1157554   -1.1037442  0.061769108   -2.1157554    1.0120111  1714436 
  261000    1.0012891   -2.1161048   -2.1161048   -1.1039635  0.064390609   -2.1161048    1.0121413  1714436 
  262000    1.0006367   -2.1151848   -2.1151848    -1.103703  0.064394138   -2.1151848    1.0114819  1714436 
  263000    1.0008482   -2.1152046   -2.1152046   -1.1035089  0.061610206   -2.1152046    1.0116957  1714436 
  264000    1.0014551   -2.1165269   -2.1165269   -1.1042178  0.060294107   -2.1165269    1.0123091  1714436 
  265000    1.0015275   -2.1163402   -2.1163402   -1.1039579  0.063216166   -2.1163402    1.0123823  1714436 
  266000    1.0015807   -2.1163959   -2.1163959   -1.1039598  0.058941565   -2.1163959    1.0124361  1714436 
  267000    1.0007954   -2.1156489   -2.1156489   -1.1040066  0.067311434   -2.1156489    1.0116423  1714436 
  268000    1.0014758   -2.1164041   -2.1164041    -1.104074  0.063308943   -2.1164041    1.0123301  1714436 
  269000    1.0010628   -2.1154801   -2.1154801   -1.1035675   0.06374425   -2.1154801    1.0119126  1714436 
  270000    1.0011263   -2.1154073   -2.1154073   -1.1034305  0.064232602   -2.1154073    1.0119768  1714436 
  271000    1.0015158   -2.1150347   -2.1150347   -1.1026641  0.066287421   -2.1150347    1.0123705  1714436 
  272000    1.0008826   -2.1148406   -2.1148406   -1.1031102  0.061506422   -2.1148406    1.0117304  1714436 
  273000   0.99990021   -2.1142936   -2.1142936   -1.1035562  0.065263024   -2.1142936    1.0107374  1714436 
  274000    1.0005769   -2.1150294   -2.1150294    -1.103608  0.065416033   -2.1150294    1.0114214  1714436 
  275000    1.0004145   -2.1145551   -2.1145551   -1.1032979  0.065326871   -2.1145551    1.0112572  1714436 
  276000    1.0016153   -2.1159149   -2.1159149   -1.1034438   0.06244196   -2.1159149    1.0124711  1714436 
  277000    1.0005336   -2.1148873   -2.1148873   -1.1035096  0.060922284   -2.1148873    1.0113776  1714436 
  278000    1.0009803   -2.1154632   -2.1154632    -1.103634  0.063282131   -2.1154632    1.0118292  1714436 
  279000    1.0005481   -2.1149197   -2.1149197   -1.1035274  0.066521898   -2.1149197    1.0113923  1714436 
  280000    1.0009184   -2.1152613   -2.1152613   -1.1034947  0.064625424   -2.1152613    1.0117666  1714436 
  281000     1.000667   -2.1147155   -2.1147155   -1.1032031  0.064079482   -2.1147155    1.0115125  1714436 
  282000    1.0005762    -2.115185    -2.115185   -1.1037642   0.06434217    -2.115185    1.0114207  1714436 
  283000    1.0005405   -2.1150251   -2.1150251   -1.1036405  0.060735556   -2.1150251    1.0113846  1714436 
  284000     1.000571   -2.1151667   -2.1151667   -1.1037513  0.065124931   -2.1151667    1.0114154  1714436 
  285000    1.0013442   -2.1157845   -2.1157845   -1.1035875  0.065716862   -2.1157845     1.012197  1714436 
  286000    1.0018096   -2.1162013   -2.1162013   -1.1035338   0.05875317   -2.1162013    1.0126675  1714436 
  287000    1.0022924   -2.1161467   -2.1161467   -1.1029912  0.062618676   -2.1161467    1.0131555  1714436 
  288000     1.001044   -2.1154216   -2.1154216   -1.1035281   0.06323483   -2.1154216    1.0118935  1714436 
  289000     1.001053    -2.115832    -2.115832   -1.1039293  0.064011591    -2.115832    1.0119027  1714436 
  290000    1.0009109   -2.1155538   -2.1155538   -1.1037947  0.062263138   -2.1155538    1.0117591  1714436 
  291000    1.0008964   -2.1154177   -2.1154177   -1.1036733  0.065908804   -2.1154177    1.0117444  1714436 
  292000    1.0019546   -2.1169155   -2.1169155   -1.1041014  0.063253028   -2.1169155     1.012814  1714436 
  293000    1.0024834   -2.1174236   -2.1174236    -1.104075  0.066174033   -2.1174236    1.0133486  1714436 
  294000    1.0007057   -2.1157976   -2.1157976    -1.104246   0.06692601   -2.1157976    1.0115516  1714436 
  295000    1.0013858   -2.1158642   -2.1158642   -1.1036251  0.066699198   -2.1158642    1.0122391  1714436 
  296000    1.0018983   -2.1162395   -2.1162395   -1.1034824  0.066228671   -2.1162395    1.0127571  1714436 
  297000    1.0018139   -2.1160187   -2.1160187   -1.1033468  0.066550655   -2.1160187    1.0126719  1714436 
  298000    1.0020222   -2.1163787   -2.1163787   -1.1034963  0.064790184   -2.1163787    1.0128824  1714436 
  299000    1.0018504   -2.1163403   -2.1163403   -1.1036316  0.066774527   -2.1163403    1.0127087  1714436 
  300000    1.0022579   -2.1162464   -2.1162464   -1.1031258  0.064784154   -2.1162464    1.0131206  1714436 
  301000    1.0027967   -2.1166028   -2.1166028   -1.1029375  0.065623658   -2.1166028    1.0136653  1714436 
  302000     1.001215   -2.1152918   -2.1152918   -1.1032254  0.066500237   -2.1152918    1.0120664  1714436 
  303000    1.0017545   -2.1160238   -2.1160238   -1.1034121  0.062899612   -2.1160238    1.0126117  1714436 
  304000     1.001579   -2.1162688   -2.1162688   -1.1038344  0.063293221   -2.1162688    1.0124344  1714436 
  305000    1.0013779   -2.1159323   -2.1159323   -1.1037012  0.061743281   -2.1159323    1.0122311  1714436 
  306000    1.0020936   -2.1167966   -2.1167966    -1.103842  0.068465852   -2.1167966    1.0129546  1714436 
  307000    1.0022529   -2.1173061   -2.1173061   -1.1041905   0.06453658   -2.1173061    1.0131156  1714436 
  308000    1.0027452   -2.1181883   -2.1181883   -1.1045751  0.064874964   -2.1181883    1.0136132  1714436 
  309000    1.0016167   -2.1168669   -2.1168669   -1.1043944  0.066233941   -2.1168669    1.0124725  1714436 
  310000    1.0020408   -2.1173888   -2.1173888   -1.1044876  0.066497911   -2.1173888    1.0129011  1714436 
  311000    1.0027392   -2.1177124   -2.1177124   -1.1041052  0.061799554   -2.1177124    1.0136072  1714436 
  312000    1.0012128    -2.115785    -2.115785   -1.1037208  0.066526233    -2.115785    1.0120642  1714436 
  313000    1.0014254   -2.1163213   -2.1163213   -1.1040421  0.065928051   -2.1163213    1.0122791  1714436 
  314000     1.001254   -2.1164689   -2.1164689   -1.1043631  0.062400574   -2.1164689    1.0121058  1714436 
  315000    1.0004023   -2.1159024   -2.1159024   -1.1046575  0.066066548   -2.1159024    1.0112449  1714436 
  316000    1.0004362   -2.1155782   -2.1155782    -1.104299  0.059162093   -2.1155782    1.0112792  1714436 
  317000    1.0001194   -2.1149655   -2.1149655   -1.1040065  0.063369344   -2.1149655     1.010959  1714436 
  318000     1.001299   -2.1164007   -2.1164007   -1.1042494  0.061594969   -2.1164007    1.0121513  1714436 
  319000    1.0007426   -2.1161254   -2.1161254   -1.1045364  0.062987859   -2.1161254    1.0115889  1714436 
  320000    1.0013434   -2.1164235   -2.1164235   -1.1042273  0.060986252   -2.1164235    1.0121962  1714436 
  321000    1.0013243   -2.1164056   -2.1164056   -1.1042287  0.060683003   -2.1164056    1.0121769  1714436 
  322000    1.0011607   -2.1163358   -2.1163358   -1.1043242  0.064764471   -2.1163358    1.0120116  1714436 
  323000    1.0011048   -2.1165486   -2.1165486   -1.1045936  0.065913341   -2.1165486     1.011955  1714436 
  324000     1.001008   -2.1164703   -2.1164703   -1.1046131  0.063127635   -2.1164703    1.0118572  1714436 
  325000    1.0011883   -2.1167198   -2.1167198   -1.1046803  0.064392119   -2.1167198    1.0120395  1714436 
  326000       1.0008   -2.1158744   -2.1158744   -1.1042275  0.066063721   -2.1158744    1.0116469  1714436 
  327000    1.0002746   -2.1154711   -2.1154711   -1.1043552   0.06421765   -2.1154711    1.0111159  1714436 
  328000    1.0012913   -2.1163337   -2.1163337   -1.1041901  0.063708615   -2.1163337    1.0121436  1714436 
  329000    1.0018388   -2.1166688   -2.1166688   -1.1039719  0.063139659   -2.1166688     1.012697  1714436 
  330000    1.0018708   -2.1162773   -2.1162773    -1.103548  0.064105545   -2.1162773    1.0127293  1714436 
  331000    1.0019622   -2.1164699   -2.1164699   -1.1036481  0.061418919   -2.1164699    1.0128218  1714436 
  332000     1.001982   -2.1168366   -2.1168366   -1.1039948  0.062583919   -2.1168366    1.0128417  1714436 
  333000    1.0016344   -2.1164585   -2.1164585   -1.1039681  0.065109288   -2.1164585    1.0124904  1714436 
  334000    1.0022917   -2.1172673   -2.1172673   -1.1041125  0.063197595   -2.1172673    1.0131548  1714436 
  335000    1.0018238   -2.1165118   -2.1165118     -1.10383  0.065131096   -2.1165118    1.0126818  1714436 
  336000    1.0020293   -2.1165165   -2.1165165    -1.103627  0.061250089   -2.1165165    1.0128895  1714436 
  337000    1.0015299   -2.1158284   -2.1158284   -1.1034436   0.06733855   -2.1158284    1.0123848  1714436 
  338000    1.0027628   -2.1169905   -2.1169905   -1.1033595  0.067497283   -2.1169905     1.013631  1714436 
  339000    1.0018794    -2.116527    -2.116527   -1.1037889   0.06416336    -2.116527     1.012738  1714436 
  340000    1.0017309    -2.116264    -2.116264   -1.1036761  0.064758907    -2.116264    1.0125879  1714436 
  341000     1.002403   -2.1164864   -2.1164864   -1.1032191  0.067409382   -2.1164864    1.0132673  1714436 
  342000    1.0020885   -2.1164167   -2.1164167   -1.1034673  0.063937046   -2.1164167    1.0129494  1714436 
  343000    1.0015107   -2.1160667   -2.1160667   -1.1037014   0.06274544   -2.1160667    1.0123653  1714436 
  344000     1.001646   -2.1161151   -2.1161151    -1.103613  0.065953242   -2.1161151     1.012502  1714436 
  345000    1.0019327   -2.1161932   -2.1161932   -1.1034013  0.066723684   -2.1161932    1.0127919  1714436 
  346000     1.003527   -2.1178282   -2.1178282   -1.1034247  0.062843403   -2.1178282    1.0144035  1714436 
  347000    1.0018675   -2.1161672   -2.1161672   -1.1034413   0.06678995   -2.1161672     1.012726  1714436 
  348000    1.0017585   -2.1159242   -2.1159242   -1.1033084  0.064307269   -2.1159242    1.0126158  1714436 
  349000    1.0029706   -2.1168738   -2.1168738   -1.1030328  0.066863263   -2.1168738     1.013841  1714436 
  350000    1.0026395   -2.1165852   -2.1165852   -1.1030789  0.060125811   -2.1165852    1.0135063  1714436 
  351000    1.0009404   -2.1149587   -2.1149587   -1.1031699  0.068186557   -2.1149587    1.0117888  1714436 
  352000    1.0012911   -2.1155527   -2.1155527   -1.1034093  0.065051051   -2.1155527    1.0121434  1714436 
  353000    1.0015538   -2.1158238   -2.1158238   -1.1034148  0.067834325   -2.1158238    1.0124089  1714436 
  354000    1.0014273   -2.1157623   -2.1157623   -1.1034812  0.064533923   -2.1157623     1.012281  1714436 
  355000     1.001315    -2.115906    -2.115906   -1.1037385  0.061378414    -2.115906    1.0121675  1714436 
  356000    1.0015701   -2.1157161   -2.1157161   -1.1032907  0.066124157   -2.1157161    1.0124254  1714436 
  357000    1.0010635   -2.1154892   -2.1154892   -1.1035759   0.06774619   -2.1154892    1.0119133  1714436 
  358000    1.0011794   -2.1152585   -2.1152585   -1.1032281  0.064651776   -2.1152585    1.0120304  1714436 
  359000    1.0009673   -2.1148914   -2.1148914   -1.1030754  0.064200609   -2.1148914     1.011816  1714436 
  360000    1.0016716   -2.1158442   -2.1158442   -1.1033162   0.06266437   -2.1158442     1.012528  1714436 
  361000    1.0009134   -2.1154278   -2.1154278   -1.1036663   0.06520244   -2.1154278    1.0117615  1714436 
  362000     1.000832   -2.1150213   -2.1150213   -1.1033421  0.069582565   -2.1150213    1.0116792  1714436 
  363000     1.002131   -2.1159311   -2.1159311   -1.1029387  0.067280996   -2.1159311    1.0129923  1714436 
  364000    1.0019921   -2.1156959   -2.1156959    -1.102844  0.063275598   -2.1156959     1.012852  1714436 
  365000    1.0022345   -2.1162528   -2.1162528   -1.1031558   0.06639878   -2.1162528     1.013097  1714436 
  366000    1.0023897   -2.1163157   -2.1163157   -1.1030618   0.06458006   -2.1163157    1.0132539  1714436 
  367000    1.0025952   -2.1161299   -2.1161299   -1.1026683  0.063870961   -2.1161299    1.0134616  1714436 
  368000     1.002782   -2.1162532   -2.1162532   -1.1026028  0.066800964   -2.1162532    1.0136504  1714436 
  369000    1.0022425    -2.115647    -2.115647   -1.1025419  0.066463481    -2.115647    1.0131051  1714436 
  370000    1.0029219   -2.1163732   -2.1163732   -1.1025813  0.067519634   -2.1163732    1.0137919  1714436 
  371000    1.0019217    -2.115422    -2.115422   -1.1026412  0.070186492    -2.115422    1.0127808  1714436 
  372000    1.0031309   -2.1167053   -2.1167053   -1.1027022  0.065431452   -2.1167053    1.0140031  1714436 
  373000    1.0018603   -2.1154661   -2.1154661   -1.1027473  0.067025402   -2.1154661    1.0127188  1714436 
  374000    1.0025263   -2.1158955   -2.1158955   -1.1025035  0.061008995   -2.1158955    1.0133919  1714436 
  375000    1.0022329   -2.1158154   -2.1158154     -1.10272  0.067777749   -2.1158154    1.0130953  1714436 
  376000     1.001668   -2.1153614   -2.1153614   -1.1028371  0.063908697   -2.1153614    1.0125243  1714436 
  377000    1.0006847   -2.1142477   -2.1142477   -1.1027173  0.066230012   -2.1142477    1.0115304  1714436 
  378000    1.0023209   -2.1157449   -2.1157449   -1.1025605  0.061636555   -2.1157449    1.0131844  1714436 
  379000    1.0012904   -2.1149805   -2.1149805   -1.1028379  0.063912002   -2.1149805    1.0121426  1714436 
  380000    1.0017028   -2.1151792   -2.1151792   -1.1026197  0.065720544   -2.1151792    1.0125595  1714436 
  381000    1.0009852   -2.1144947   -2.1144947   -1.1026606  0.065226407   -2.1144947    1.0118341  1714436 
  382000    1.0011935   -2.1145305   -2.1145305   -1.1024858  0.066361819   -2.1145305    1.0120447  1714436 
  383000    1.0017938   -2.1149718   -2.1149718   -1.1023203  0.063740537   -2.1149718    1.0126515  1714436 
  384000    1.0018331   -2.1153594   -2.1153594   -1.1026682  0.067103534   -2.1153594    1.0126913  1714436 
  385000    1.0018425   -2.1150312   -2.1150312   -1.1023305  0.067481329   -2.1150312    1.0127007  1714436 
  386000    1.0015285   -2.1147658   -2.1147658   -1.1023824  0.065338008   -2.1147658    1.0123833  1714436 
  387000    1.0017581     -2.11522     -2.11522   -1.1026046  0.062741772     -2.11522    1.0126154  1714436 
  388000    1.0022746   -2.1158573   -2.1158573   -1.1027197  0.065099784   -2.1158573    1.0131376  1714436 
  389000    1.0019253   -2.1154578   -2.1154578   -1.1026734  0.063021724   -2.1154578    1.0127844  1714436 
  390000     1.001344   -2.1150217   -2.1150217    -1.102825  0.066210519   -2.1150217    1.0121968  1714436 
  391000    1.0028371   -2.1164424   -2.1164424   -1.1027362  0.067010379   -2.1164424    1.0137061  1714436 
  392000    1.0015387   -2.1152671   -2.1152671   -1.1028734  0.064397347   -2.1152671    1.0123936  1714436 
  393000    1.0018672   -2.1156075   -2.1156075   -1.1028819  0.064553511   -2.1156075    1.0127256  1714436 
  394000    1.0020752   -2.1158647   -2.1158647   -1.1029288  0.063550837   -2.1158647    1.0129359  1714436 
  395000    1.0016421   -2.1145636   -2.1145636   -1.1020654  0.067374691   -2.1145636    1.0124982  1714436 
  396000    1.0014243   -2.1149802   -2.1149802   -1.1027023  0.062094085   -2.1149802     1.012278  1714436 
  397000    1.0011406    -2.114495    -2.114495   -1.1025037  0.062903675    -2.114495    1.0119913  1714436 
  398000    1.0012183    -2.114756    -2.114756   -1.1026862  0.066486893    -2.114756    1.0120697  1714436 
  399000    1.0022202   -2.1150377   -2.1150377   -1.1019552  0.066799155   -2.1150377    1.0130825  1714436 
  400000    1.0030916   -2.1159456   -2.1159456   -1.1019823  0.063321221   -2.1159456    1.0139633  1714436 
  401000    1.0023518    -2.115638    -2.115638   -1.1024224  0.066149124    -2.115638    1.0132155  1714436 
  402000    1.0019674   -2.1152624   -2.1152624   -1.1024354  0.062131395   -2.1152624     1.012827  1714436 
  403000    1.0020795   -2.1153101   -2.1153101   -1.1023698  0.064586768   -2.1153101    1.0129403  1714436 
  404000    1.0017285   -2.1149469   -2.1149469   -1.1023614  0.066534719   -2.1149469    1.0125855  1714436 
  405000    1.0016473   -2.1153533   -2.1153533   -1.1028499   0.06822753   -2.1153533    1.0125034  1714436 
  406000    1.0009211   -2.1147162   -2.1147162   -1.1029469  0.066355709   -2.1147162    1.0117694  1714436 
  407000     1.000892   -2.1144633   -2.1144633   -1.1027234  0.064130545   -2.1144633    1.0117399  1714436 
  408000     1.002018   -2.1158019   -2.1158019   -1.1029237  0.063918699   -2.1158019    1.0128781  1714436 
  409000    1.0019915   -2.1156854   -2.1156854   -1.1028341  0.064562384   -2.1156854    1.0128513  1714436 
  410000    1.0011213    -2.114601    -2.114601   -1.1026293  0.067152303    -2.114601    1.0119717  1714436 
  411000    1.0012379   -2.1147847   -2.1147847   -1.1026951  0.062665881   -2.1147847    1.0120896  1714436 
  412000    1.0024906   -2.1165342   -2.1165342   -1.1031783  0.067845813   -2.1165342    1.0133559  1714436 
  413000     1.001422   -2.1153906   -2.1153906   -1.1031149  0.064852688   -2.1153906    1.0122757  1714436 
  414000    1.0020012   -2.1162595   -2.1162595   -1.1033983  0.064811803   -2.1162595    1.0128612  1714436 
  415000    1.0015079   -2.1157409   -2.1157409   -1.1033784  0.062100206   -2.1157409    1.0123626  1714436 
  416000    1.0012681   -2.1156731   -2.1156731    -1.103553  0.063419454   -2.1156731    1.0121201  1714436 
  417000    1.0001508    -2.114455    -2.114455   -1.1034643  0.067660378    -2.114455    1.0109907  1714436 
  418000    1.0007289   -2.1144996   -2.1144996   -1.1029245  0.065207867   -2.1144996     1.011575  1714436 
  419000    1.0022579   -2.1157132   -2.1157132   -1.1025926  0.062270742   -2.1157132    1.0131206  1714436 
  420000    1.0018809   -2.1158619   -2.1158619   -1.1031223   0.06425067   -2.1158619    1.0127396  1714436 
  421000    1.0028086   -2.1166657   -2.1166657   -1.1029884  0.061445103   -2.1166657    1.0136773  1714436 
  422000    1.0019272   -2.1154386   -2.1154386   -1.1026523  0.060020227   -2.1154386    1.0127863  1714436 
  423000    1.0020923   -2.1159034   -2.1159034   -1.1029502   0.06342321   -2.1159034    1.0129532  1714436 
  424000    1.0024924   -2.1160122   -2.1160122   -1.1026546  0.066219916   -2.1160122    1.0133576  1714436 
  425000    1.0025651   -2.1163134   -2.1163134   -1.1028822  0.067030301   -2.1163134    1.0134312  1714436 
  426000    1.0015118   -2.1154497   -2.1154497   -1.1030832  0.064940084   -2.1154497    1.0123665  1714436 
  427000    1.0026412   -2.1168454   -2.1168454   -1.1033373  0.066911584   -2.1168454    1.0135081  1714436 
  428000    1.0013623   -2.1152657   -2.1152657   -1.1030503  0.066516169   -2.1152657    1.0122154  1714436 
  429000    1.0020183   -2.1160784   -2.1160784   -1.1031999  0.064707478   -2.1160784    1.0128785  1714436 
  430000    1.0021232   -2.1159268   -2.1159268   -1.1029423  0.062603008   -2.1159268    1.0129844  1714436 
  431000    1.0024016   -2.1158357   -2.1158357   -1.1025698  0.068278211   -2.1158357    1.0132659  1714436 
  432000    1.0018253   -2.1156279   -2.1156279   -1.1029445  0.068035413   -2.1156279    1.0126833  1714436 
  433000    1.0016875   -2.1154553   -2.1154553   -1.1029113  0.065160465   -2.1154553     1.012544  1714436 
  434000     1.001425   -2.1150004   -2.1150004   -1.1027216  0.066914908   -2.1150004    1.0122787  1714436 
  435000    1.0019875   -2.1154968   -2.1154968   -1.1026495  0.068336593   -2.1154968    1.0128473  1714436 
  436000    1.0028022   -2.1166135   -2.1166135   -1.1029427   0.06655353   -2.1166135    1.0136708  1714436 
  437000    1.0013453   -2.1153069   -2.1153069   -1.1031088  0.064912163   -2.1153069    1.0121981  1714436 
  438000    1.0018877   -2.1161013   -2.1161013   -1.1033549  0.067049965   -2.1161013    1.0127464  1714436 
  439000    1.0023351   -2.1160482   -2.1160482   -1.1028496  0.062410131   -2.1160482    1.0131987  1714436 
  440000    1.0020478   -2.1155118   -2.1155118   -1.1026036  0.068155286   -2.1155118    1.0129082  1714436 
  441000    1.0026241   -2.1160656   -2.1160656   -1.1025749  0.066204466   -2.1160656    1.0134908  1714436 
  442000    1.0019163   -2.1154111   -2.1154111   -1.1026358  0.062353347   -2.1154111    1.0127753  1714436 
  443000    1.0023912   -2.1161398   -2.1161398   -1.1028845  0.065137879   -2.1161398    1.0132553  1714436 
  444000    1.0024866   -2.1162023   -2.1162023   -1.1028505  0.066563744   -2.1162023    1.0133518  1714436 
  445000    1.0028656   -2.1167487   -2.1167487   -1.1030138  0.063827644   -2.1167487    1.0137349  1714436 
  446000    1.0028581   -2.1164719   -2.1164719   -1.1027446  0.066707629   -2.1164719    1.0137273  1714436 
  447000    1.0029457   -2.1164815   -2.1164815   -1.1026656  0.067510644   -2.1164815    1.0138159  1714436 
  448000     1.001818   -2.1157186   -2.1157186   -1.1030427  0.062382126   -2.1157186    1.0126759  1714436 
  449000    1.0003818   -2.1145857   -2.1145857   -1.1033615  0.067235924   -2.1145857    1.0112242  1714436 
  450000    1.0012484   -2.1154332   -2.1154332    -1.103333  0.059025721   -2.1154332    1.0121002  1714436 
  451000    1.0016037   -2.1157156   -2.1157156   -1.1032562  0.065492267   -2.1157156    1.0124594  1714436 
  452000    1.0013834   -2.1159864   -2.1159864   -1.1037497  0.066786654   -2.1159864    1.0122367  1714436 
  453000   0.99983037   -2.1141381   -2.1141381   -1.1034713  0.067391843   -2.1141381    1.0106668  1714436 
  454000    1.0016621   -2.1159858   -2.1159858   -1.1034674  0.064295833   -2.1159858    1.0125184  1714436 
  455000    1.0011311   -2.1152465   -2.1152465   -1.1032649  0.062222966   -2.1152465    1.0119816  1714436 
  456000    1.0003986   -2.1142849   -2.1142849   -1.1030438  0.064153685   -2.1142849    1.0112412  1714436 
  457000    1.0015982   -2.1149276   -2.1149276   -1.1024738   0.06763486   -2.1149276    1.0124538  1714436 
  458000    1.0011996   -2.1148976   -2.1148976   -1.1028468  0.059139156   -2.1148976    1.0120508  1714436 
  459000    1.0013492   -2.1149094   -2.1149094   -1.1027073  0.060001287   -2.1149094    1.0122021  1714436 
  460000    1.0010754   -2.1149513   -2.1149513    -1.103026   0.06119825   -2.1149513    1.0119253  1714436 
  461000    1.0013552   -2.1157458   -2.1157458   -1.1035377  0.061113374   -2.1157458    1.0122081  1714436 
  462000    1.0011915   -2.1153752   -2.1153752   -1.1033326  0.062551405   -2.1153752    1.0120427  1714436 
  463000    1.0012003   -2.1153384   -2.1153384   -1.1032868  0.068164458   -2.1153384    1.0120516  1714436 
  464000    1.0017446   -2.1157444   -2.1157444   -1.1031426   0.06229174   -2.1157444    1.0126018  1714436 
  465000    1.0016864   -2.1154423   -2.1154423   -1.1028994  0.063494262   -2.1154423    1.0125429  1714436 
  466000     1.001789   -2.1152786   -2.1152786   -1.1026319  0.064950269   -2.1152786    1.0126467  1714436 
  467000    1.0018269   -2.1151185   -2.1151185   -1.1024334  0.069662158   -2.1151185     1.012685  1714436 
  468000    1.0023006   -2.1153706   -2.1153706   -1.1022068  0.062034185   -2.1153706    1.0131638  1714436 
  469000    1.0015375   -2.1152384   -2.1152384    -1.102846   0.06692535   -2.1152384    1.0123925  1714436 
  470000     1.002276   -2.1161193   -2.1161193   -1.1029804   0.06234744   -2.1161193    1.0131389  1714436 
  471000    1.0018362   -2.1158052   -2.1158052   -1.1031108  0.066447766   -2.1158052    1.0126944  1714436 
  472000     1.001308   -2.1153016   -2.1153016   -1.1031411  0.068041965   -2.1153016    1.0121605  1714436 
  473000    1.0017584   -2.1154725   -2.1154725   -1.1028568  0.066236862   -2.1154725    1.0126157  1714436 
  474000    1.0015121   -2.1153838   -2.1153838   -1.1030171  0.064373949   -2.1153838    1.0123667  1714436 
  475000    1.0012572   -2.1150119   -2.1150119   -1.1029028  0.065462382   -2.1150119    1.0121091  1714436 
  476000    1.0010502   -2.1145351   -2.1145351   -1.1026352  0.064396687   -2.1145351    1.0118999  1714436 
  477000    1.0013996   -2.1147276   -2.1147276   -1.1024745  0.064463666   -2.1147276     1.012253  1714436 
  478000    1.0017105   -2.1150848   -2.1150848   -1.1025175  0.065452391   -2.1150848    1.0125673  1714436 
  479000    1.0010499   -2.1147549   -2.1147549   -1.1028553  0.065977329   -2.1147549    1.0118996  1714436 
  480000    1.0014572   -2.1149667   -2.1149667   -1.1026554  0.065945359   -2.1149667    1.0123113  1714436 
  481000     1.001761   -2.1153267   -2.1153267   -1.1027083  0.066037132   -2.1153267    1.0126184  1714436 
  482000    1.0014948   -2.1147367   -2.1147367   -1.1023874  0.061868922   -2.1147367    1.0123493  1714436 
  483000    1.0012546   -2.1151197   -2.1151197   -1.1030132  0.064656366   -2.1151197    1.0121065  1714436 
  484000    1.0009641   -2.1147839   -2.1147839   -1.1029711  0.062586144   -2.1147839    1.0118128  1714436 
  485000    1.0021246   -2.1157326   -2.1157326   -1.1027468  0.066500001   -2.1157326    1.0129858  1714436 
  486000     1.001512   -2.1151645   -2.1151645   -1.1027979  0.066025691   -2.1151645    1.0123666  1714436 
  487000    1.0013376   -2.1150499   -2.1150499   -1.1028595  0.063172964   -2.1150499    1.0121903  1714436 
  488000    1.0017929   -2.1155798   -2.1155798   -1.1029292  0.067617751   -2.1155798    1.0126506  1714436 
  489000    1.0022324   -2.1162546   -2.1162546   -1.1031598  0.062313717   -2.1162546    1.0130948  1714436 
  490000    1.0024541   -2.1164536   -2.1164536   -1.1031346  0.065392819   -2.1164536     1.013319  1714436 
  491000    1.0012479    -2.115194    -2.115194   -1.1030944   0.06579999    -2.115194    1.0120996  1714436 
  492000    1.0026329   -2.1167208   -2.1167208   -1.1032211  0.059155584   -2.1167208    1.0134997  1714436 
  493000    1.0014184   -2.1152497   -2.1152497   -1.1029777   0.06866492   -2.1152497     1.012272  1714436 
  494000    1.0013679   -2.1159623   -2.1159623   -1.1037414  0.064094812   -2.1159623    1.0122209  1714436 
  495000    1.0008703   -2.1156118   -2.1156118   -1.1038938  0.065495725   -2.1156118     1.011718  1714436 
  496000    1.0011576   -2.1155645   -2.1155645   -1.1035562  0.062659948   -2.1155645    1.0120084  1714436 
  497000    1.0011126   -2.1154436   -2.1154436   -1.1034807  0.062913771   -2.1154436    1.0119629  1714436 
  498000    1.0018657   -2.1164111   -2.1164111   -1.1036869  0.065371373   -2.1164111    1.0127242  1714436 
  499000    1.0026494   -2.1169271   -2.1169271   -1.1034107  0.064603353   -2.1169271    1.0135164  1714436 
  500000    1.0022025    -2.116125    -2.116125   -1.1030603  0.065706802    -2.116125    1.0130646  1714436 
  501000    1.0016593   -2.1158216   -2.1158216   -1.1033061  0.067517524   -2.1158216    1.0125155  1714436 
  502000     1.002048   -2.1161182   -2.1161182   -1.1032097  0.062105436   -2.1161182    1.0129085  1714436 
  503000      1.00054   -2.1150661   -2.1150661    -1.103682  0.062014475   -2.1150661    1.0113841  1714436 
  504000    1.0006179   -2.1151286   -2.1151286   -1.1036657  0.063563862   -2.1151286    1.0114629  1714436 
  505000    1.0007372   -2.1153365   -2.1153365   -1.1037531  0.061230824   -2.1153365    1.0115834  1714436 
  506000    1.0021489   -2.1164369   -2.1164369   -1.1034264  0.066791705   -2.1164369    1.0130105  1714436 
  507000    1.0017254   -2.1155894   -2.1155894    -1.103007   0.06428384   -2.1155894    1.0125824  1714436 
  508000    1.0015552   -2.1161105   -2.1161105   -1.1037003  0.066198364   -2.1161105    1.0124103  1714436 
  509000    1.0019133   -2.1164899   -2.1164899   -1.1037176   0.06229617   -2.1164899    1.0127723  1714436 
  510000    1.0025297   -2.1172021   -2.1172021   -1.1038067  0.063614166   -2.1172021    1.0133954  1714436 
  511000    1.0007402   -2.1151573   -2.1151573   -1.1035708  0.062094067   -2.1151573    1.0115865  1714436 
  512000    1.0021865   -2.1168844   -2.1168844   -1.1038359  0.064418213   -2.1168844    1.0130485  1714436 
  513000    1.0023825   -2.1165076   -2.1165076    -1.103261  0.060057249   -2.1165076    1.0132465  1714436 
  514000    1.0021238   -2.1166056   -2.1166056   -1.1036205  0.066782414   -2.1166056    1.0129851  1714436 
  515000    1.0012184    -2.116148    -2.116148   -1.1040781  0.065940415    -2.116148    1.0120699  1714436 
  516000    1.0011343   -2.1159596   -2.1159596   -1.1039747  0.065000708   -2.1159596    1.0119849  1714436 
  517000    1.0014231   -2.1162592   -2.1162592   -1.1039824  0.065974413   -2.1162592    1.0122768  1714436 
  518000    1.0010654   -2.1161042   -2.1161042   -1.1041889  0.065044727   -2.1161042    1.0119152  1714436 
  519000     1.001447   -2.1161179   -2.1161179    -1.103817  0.064276607   -2.1161179    1.0123009  1714436 
  520000    1.0024168   -2.1169306   -2.1169306   -1.1036493  0.063901065   -2.1169306    1.0132812  1714436 
  521000    1.0011367   -2.1155532   -2.1155532   -1.1035659  0.064686344   -2.1155532    1.0119873  1714436 
  522000    1.0016815   -2.1160224   -2.1160224   -1.1034844  0.063054594   -2.1160224     1.012538  1714436 
  523000    1.0011971   -2.1158467   -2.1158467   -1.1037984  0.065654616   -2.1158467    1.0120483  1714436 
  524000    1.0003794   -2.1155772   -2.1155772   -1.1043555  0.064162533   -2.1155772    1.0112217  1714436 
  525000    1.0004722   -2.1154287   -2.1154287   -1.1041131  0.066581504   -2.1154287    1.0113155  1714436 
  526000    1.0015164   -2.1166058   -2.1166058   -1.1042347  0.063861921   -2.1166058    1.0123711  1714436 
  527000     1.001255   -2.1164394   -2.1164394   -1.1043326  0.066773294   -2.1164394    1.0121069  1714436 
  528000    1.0011908   -2.1161556   -2.1161556   -1.1041136   0.06448951   -2.1161556     1.012042  1714436 
  529000    1.0009235   -2.1162039   -2.1162039   -1.1044322  0.062627836   -2.1162039    1.0117717  1714436 
  530000    1.0003394   -2.1157773   -2.1157773    -1.104596  0.065199352   -2.1157773    1.0111813  1714436 
  531000    1.0012231   -2.1160243   -2.1160243   -1.1039496   0.06793406   -2.1160243    1.0120747  1714436 
  532000    1.0007235   -2.1157063   -2.1157063   -1.1041367   0.06560901   -2.1157063    1.0115696  1714436 
  533000    1.0010798     -2.11603     -2.11603   -1.1041003  0.062145637     -2.11603    1.0119297  1714436 
  534000    1.0017566     -2.11643     -2.11643   -1.1038162  0.064632647     -2.11643    1.0126139  1714436 
  535000    1.0007076   -2.1156057   -2.1156057   -1.1040521  0.065964141   -2.1156057    1.0115536  1714436 
  536000    1.0009896   -2.1154903   -2.1154903   -1.1036517  0.064511658   -2.1154903    1.0118386  1714436 
  537000    1.0018293   -2.1160413   -2.1160413   -1.1033539  0.063868182   -2.1160413    1.0126874  1714436 
  538000    1.0015825   -2.1159132   -2.1159132   -1.1034753   0.06543051   -2.1159132    1.0124379  1714436 
  539000    1.0014937   -2.1154945   -2.1154945   -1.1031463  0.063495928   -2.1154945    1.0123482  1714436 
  540000    1.0014115   -2.1152257   -2.1152257   -1.1029607  0.063522811   -2.1152257     1.012265  1714436 
  541000    1.0016773   -2.1157327   -2.1157327    -1.103199  0.064884064   -2.1157327    1.0125337  1714436 
  542000    1.0017911   -2.1161994   -2.1161994   -1.1035506   0.06269248   -2.1161994    1.0126488  1714436 
  543000    1.0018872    -2.116329    -2.116329   -1.1035831  0.068377471    -2.116329    1.0127459  1714436 
  544000    1.0015782   -2.1155718   -2.1155718   -1.1031381  0.064085314   -2.1155718    1.0124336  1714436 
  545000     1.001531   -2.1157643   -2.1157643   -1.1033784  0.070251881   -2.1157643    1.0123859  1714436 
  546000    1.0025304   -2.1169896   -2.1169896   -1.1035935  0.065667145   -2.1169896    1.0133961  1714436 
  547000    1.0017326   -2.1159993   -2.1159993   -1.1034096  0.067015742   -2.1159993    1.0125896  1714436 
  548000    1.0030365   -2.1174687   -2.1174687   -1.1035611  0.065845658   -2.1174687    1.0139076  1714436 
  549000    1.0026135   -2.1169025   -2.1169025   -1.1034224   0.06532262   -2.1169025    1.0134801  1714436 
  550000    1.0024022   -2.1160817   -2.1160817   -1.1028152  0.064235434   -2.1160817    1.0132665  1714436 
  551000    1.0014502   -2.1153161   -2.1153161   -1.1030119  0.067099815   -2.1153161    1.0123042  1714436 
  552000    1.0010145   -2.1150244   -2.1150244   -1.1031606   0.06291307   -2.1150244    1.0118638  1714436 
  553000    1.0017085   -2.1158823   -2.1158823   -1.1033171  0.063326264   -2.1158823    1.0125652  1714436 
  554000    1.0006458   -2.1144705   -2.1144705   -1.1029793   0.06192837   -2.1144705    1.0114911  1714436 
  555000    1.0013967   -2.1154687   -2.1154687   -1.1032186  0.065611182   -2.1154687    1.0122501  1714436 
  556000    1.0016243   -2.1155851   -2.1155851    -1.103105  0.064915083   -2.1155851    1.0124801  1714436 
  557000    1.0018196   -2.1155677   -2.1155677   -1.1028901  0.063011195   -2.1155677    1.0126776  1714436 
  558000    1.0022495   -2.1158994   -2.1158994   -1.1027873  0.068300261   -2.1158994    1.0131121  1714436 
  559000    1.0021044   -2.1161181   -2.1161181   -1.1031527  0.067618009   -2.1161181    1.0129654  1714436 
  560000    1.0026528   -2.1161361   -2.1161361   -1.1026163  0.062734809   -2.1161361    1.0135198  1714436 
  561000    1.0020955   -2.1155735   -2.1155735   -1.1026171  0.063824453   -2.1155735    1.0129564  1714436 
  562000    1.0027038   -2.1160445   -2.1160445   -1.1024731  0.068388964   -2.1160445    1.0135713  1714436 
  563000    1.0033911   -2.1167029   -2.1167029   -1.1024368  0.063228853   -2.1167029    1.0142662  1714436 
  564000    1.0030742   -2.1162442   -2.1162442   -1.1022984  0.068846797   -2.1162442    1.0139458  1714436 
  565000     1.002219   -2.1155611   -2.1155611   -1.1024798  0.066233425   -2.1155611    1.0130813  1714436 
  566000    1.0014847   -2.1149117   -2.1149117   -1.1025726  0.068915994   -2.1149117    1.0123391  1714436 
  567000    1.0023809   -2.1158706   -2.1158706   -1.1026256  0.065415267   -2.1158706    1.0132449  1714436 
  568000    1.0014263    -2.115514    -2.115514   -1.1032339  0.066557966    -2.115514      1.01228  1714436 
  569000    1.0021265   -2.1159326   -2.1159326   -1.1029448  0.066639293   -2.1159326    1.0129878  1714436 
  570000    1.0012325   -2.1153776   -2.1153776   -1.1032935  0.061449796   -2.1153776    1.0120841  1714436 
  571000    1.0018268   -2.1156003   -2.1156003   -1.1029154  0.065502263   -2.1156003    1.0126849  1714436 
  572000    1.0025609   -2.1161736   -2.1161736   -1.1027467  0.062725236   -2.1161736    1.0134269  1714436 
  573000    1.0010741    -2.114907    -2.114907   -1.1029829  0.063885534    -2.114907     1.011924  1714436 
  574000    1.0004664   -2.1140396   -2.1140396   -1.1027298  0.062547943   -2.1140396    1.0113097  1714436 
  575000    1.0013167   -2.1150659   -2.1150659   -1.1028966  0.063833333   -2.1150659    1.0121693  1714436 
  576000    1.0018484   -2.1152939   -2.1152939   -1.1025873  0.062847489   -2.1152939    1.0127067  1714436 
  577000    1.0011333   -2.1149386   -2.1149386   -1.1029547  0.063934599   -2.1149386    1.0119838  1714436 
  578000    1.0009753   -2.1152497   -2.1152497   -1.1034256  0.062602536   -2.1152497    1.0118241  1714436 
  579000    1.0009493   -2.1150296   -2.1150296   -1.1032317  0.064016593   -2.1150296    1.0117978  1714436 
  580000    1.0016193    -2.115191    -2.115191   -1.1027159  0.062778162    -2.115191    1.0124751  1714436 
  581000    1.0005438   -2.1142176   -2.1142176   -1.1028296    0.0646952   -2.1142176     1.011388  1714436 
  582000    1.0007677   -2.1141961   -2.1141961   -1.1025818  0.064610477   -2.1141961    1.0116143  1714436 
  583000    1.0007357   -2.1140979   -2.1140979    -1.102516  0.064700536   -2.1140979    1.0115819  1714436 
  584000     1.001129   -2.1147955   -2.1147955    -1.102816  0.064774791   -2.1147955    1.0119795  1714436 
  585000    1.0011935   -2.1143716   -2.1143716   -1.1023269  0.059144268   -2.1143716    1.0120447  1714436 
  586000    1.0011127    -2.114223    -2.114223     -1.10226  0.060973711    -2.114223     1.011963  1714436 
  587000    1.0024312   -2.1150841   -2.1150841   -1.1017883   0.06340893   -2.1150841    1.0132958  1714436 
  588000    1.0009092   -2.1138379   -2.1138379   -1.1020805  0.064146066   -2.1138379    1.0117574  1714436 
  589000      1.00109   -2.1138497   -2.1138497   -1.1019097  0.067021027   -2.1138497    1.0119401  1714436 
  590000    1.0006149   -2.1135073   -2.1135073   -1.1020474  0.064830539   -2.1135073    1.0114598  1714436 
  591000     1.001394   -2.1148491   -2.1148491   -1.1026017  0.063757412   -2.1148491    1.0122474  1714436 
  592000   0.99988507   -2.1138053   -2.1138053   -1.1030832  0.061927098   -2.1138053    1.0107221  1714436 
  593000    1.0004191   -2.1138806   -2.1138806   -1.1026187  0.063524048   -2.1138806    1.0112619  1714436 
  594000    1.0016859   -2.1150958   -2.1150958   -1.1025533  0.061072956   -2.1150958    1.0125425  1714436 
  595000    1.0016097   -2.1146194   -2.1146194    -1.102154  0.063451055   -2.1146194    1.0124654  1714436 
  596000    1.0016481   -2.1143747   -2.1143747   -1.1018705  0.065849769   -2.1143747    1.0125042  1714436 
  597000    1.0016527   -2.1145006   -2.1145006   -1.1019917  0.066914935   -2.1145006    1.0125089  1714436 
  598000    1.0012746   -2.1141922   -2.1141922   -1.1020655  0.060638417   -2.1141922    1.0121267  1714436 
  599000    1.0016943   -2.1146678   -2.1146678   -1.1021169  0.065136795   -2.1146678    1.0125509  1714436 
  600000    1.0020558   -2.1151517   -2.1151517   -1.1022353  0.064838585   -2.1151517    1.0129163  1714436 
  601000    1.0007501   -2.1143212   -2.1143212   -1.1027247  0.066630945   -2.1143212    1.0115965  1714436 
  602000    1.0012569   -2.1147436   -2.1147436   -1.1026348  0.064684859   -2.1147436    1.0121088  1714436 
  603000    1.0019585   -2.1151803   -2.1151803   -1.1023623  0.063311397   -2.1151803     1.012818  1714436 
  604000    1.0016112   -2.1147901   -2.1147901   -1.1023232  0.064737279   -2.1147901    1.0124669  1714436 
  605000    1.0028507   -2.1159608   -2.1159608    -1.102241  0.066839471   -2.1159608    1.0137198  1714436 
  606000    1.0014415   -2.1148477   -2.1148477   -1.1025524   0.06300821   -2.1148477    1.0122954  1714436 
  607000     1.001867   -2.1154904   -2.1154904   -1.1027649   0.06658197   -2.1154904    1.0127255  1714436 
  608000    1.0006681    -2.114606    -2.114606   -1.1030923  0.064757825    -2.114606    1.0115136  1714436 
  609000    1.0012586   -2.1156826   -2.1156826   -1.1035721  0.062395211   -2.1156826    1.0121105  1714436 
  610000     1.002362   -2.1161746   -2.1161746   -1.1029487  0.062303597   -2.1161746    1.0132259  1714436 
  611000    1.0016656   -2.1154105   -2.1154105   -1.1028886   0.06327465   -2.1154105    1.0125219  1714436 
  612000    1.0024795   -2.1162968   -2.1162968   -1.1029523  0.061969387   -2.1162968    1.0133446  1714436 
  613000    1.0016582    -2.115702    -2.115702   -1.1031876  0.064293635    -2.115702    1.0125144  1714436 
  614000    1.0010213   -2.1155481   -2.1155481   -1.1036775  0.065037173   -2.1155481    1.0118706  1714436 
  615000    1.0013911   -2.1159569   -2.1159569   -1.1037125  0.065251785   -2.1159569    1.0122444  1714436 
  616000    1.0015849   -2.1158243   -2.1158243    -1.103384   0.06241928   -2.1158243    1.0124404  1714436 
  617000    1.0007208   -2.1144334   -2.1144334   -1.1028665  0.060223549   -2.1144334    1.0115669  1714436 
  618000    1.0017291    -2.115804    -2.115804   -1.1032178  0.061042592    -2.115804    1.0125861  1714436 
  619000    1.0022221   -2.1160634   -2.1160634    -1.102979  0.065305034   -2.1160634    1.0130844  1714436 
  620000    1.0027938   -2.1162368   -2.1162368   -1.1025744   0.06556417   -2.1162368    1.0136623  1714436 
  621000     1.001876   -2.1151455   -2.1151455   -1.1024109  0.065718174   -2.1151455    1.0127346  1714436 
  622000    1.0020947   -2.1158221   -2.1158221   -1.1028665   0.06940648   -2.1158221    1.0129556  1714436 
  623000     1.002867   -2.1167387   -2.1167387   -1.1030024  0.067529507   -2.1167387    1.0137364  1714436 
  624000    1.0026851   -2.1165235   -2.1165235   -1.1029711  0.066043941   -2.1165235    1.0135524  1714436 
  625000    1.0019429   -2.1161665   -2.1161665   -1.1033642  0.065133508   -2.1161665    1.0128022  1714436 
  626000    1.0021704   -2.1161693   -2.1161693   -1.1031371  0.068506647   -2.1161693    1.0130322  1714436 
  627000    1.0019857   -2.1158696   -2.1158696   -1.1030241   0.06632939   -2.1158696    1.0128455  1714436 
  628000    1.0031908   -2.1169591   -2.1169591   -1.1028955   0.06567501   -2.1169591    1.0140636  1714436 
  629000    1.0020612   -2.1156607   -2.1156607   -1.1027389  0.065815478   -2.1156607    1.0129218  1714436 
  630000    1.0022142   -2.1158653   -2.1158653   -1.1027889  0.060870617   -2.1158653    1.0130764  1714436 
  631000    1.0027377   -2.1166186   -2.1166186    -1.103013  0.063492414   -2.1166186    1.0136057  1714436 
[...]
 9832000    1.0130614   -2.0838883   -2.0838883   -1.0598471  0.075164183   -2.0838883    1.0240412  1714436 
 9833000    1.0116967   -2.0829201   -2.0829201   -1.0602584  0.073835392   -2.0829201    1.0226617  1714436 
 9834000    1.0114413    -2.082682    -2.082682   -1.0602784  0.074425558    -2.082682    1.0224035  1714436 
 9835000    1.0116338   -2.0829105   -2.0829105   -1.0603123  0.070017898   -2.0829105    1.0225982  1714436 
 9836000    1.0121332   -2.0837149   -2.0837149   -1.0606119  0.071154796   -2.0837149     1.023103  1714436 
 9837000    1.0115368    -2.082925    -2.082925   -1.0604249  0.072027852    -2.082925    1.0225001  1714436 
 9838000     1.010831   -2.0828247   -2.0828247   -1.0610381  0.071258692   -2.0828247    1.0217866  1714436 
 9839000    1.0113547    -2.082857    -2.082857    -1.060541  0.076778229    -2.082857     1.022316  1714436 
 9840000    1.0123445   -2.0835498   -2.0835498   -1.0602332  0.070177991   -2.0835498    1.0233166  1714436 
 9841000    1.0125882   -2.0839607   -2.0839607   -1.0603978  0.073741299   -2.0839607    1.0235629  1714436 
 9842000    1.0115452    -2.082888    -2.082888   -1.0603793  0.074536824    -2.082888    1.0225086  1714436 
 9843000     1.012178   -2.0840188   -2.0840188   -1.0608705  0.075512447   -2.0840188    1.0231482  1714436 
 9844000    1.0119106   -2.0836739   -2.0836739    -1.060796  0.070527023   -2.0836739     1.022878  1714436 
 9845000    1.0117124   -2.0838894   -2.0838894   -1.0612118  0.067853026   -2.0838894    1.0226776  1714436 
 9846000    1.0108507   -2.0830606   -2.0830606   -1.0612541   0.07028837   -2.0830606    1.0218066  1714436 
 9847000      1.01072   -2.0824475   -2.0824475    -1.060773  0.074351029   -2.0824475    1.0216744  1714436 
 9848000    1.0114693   -2.0826598   -2.0826598   -1.0602279  0.073337227   -2.0826598    1.0224319  1714436 
 9849000    1.0118119   -2.0836274   -2.0836274   -1.0608492  0.073661496   -2.0836274    1.0227781  1714436 
 9850000    1.0119157   -2.0836447   -2.0836447   -1.0607615  0.074165628   -2.0836447    1.0228831  1714436 
 9851000    1.0117715   -2.0834066   -2.0834066   -1.0606693  0.072337118   -2.0834066    1.0227373  1714436 
 9852000     1.011627   -2.0831029   -2.0831029   -1.0605116  0.070680566   -2.0831029    1.0225913  1714436 
 9853000    1.0116042    -2.082867    -2.082867   -1.0602989  0.068533626    -2.082867    1.0225682  1714436 
 9854000    1.0114631   -2.0824255   -2.0824255   -1.0599999   0.07332668   -2.0824255    1.0224256  1714436 
 9855000    1.0119082   -2.0824317   -2.0824317   -1.0595562  0.071385936   -2.0824317    1.0228755  1714436 
 9856000    1.0114387   -2.0818934   -2.0818934   -1.0594924  0.073553734   -2.0818934     1.022401  1714436 
 9857000    1.0125895   -2.0835526   -2.0835526   -1.0599884  0.073643724   -2.0835526    1.0235642  1714436 
 9858000    1.0123248   -2.0827479   -2.0827479   -1.0594512  0.070345101   -2.0827479    1.0232966  1714436 
 9859000      1.01212   -2.0828551   -2.0828551   -1.0597654  0.072943709   -2.0828551    1.0230897  1714436 
 9860000    1.0122092   -2.0827781   -2.0827781   -1.0595984  0.069309499   -2.0827781    1.0231797  1714436 
 9861000    1.0128909   -2.0830922   -2.0830922   -1.0592233  0.072619512   -2.0830922    1.0238689  1714436 
 9862000    1.0120226   -2.0826368   -2.0826368   -1.0596457  0.072049981   -2.0826368    1.0229912  1714436 
 9863000    1.0130761   -2.0831161   -2.0831161     -1.05906  0.072246745   -2.0831161    1.0240561  1714436 
 9864000    1.0127672   -2.0829498   -2.0829498    -1.059206  0.071176188   -2.0829498    1.0237439  1714436 
 9865000     1.012702   -2.0825788   -2.0825788   -1.0589008  0.071886356   -2.0825788     1.023678  1714436 
 9866000    1.0122259   -2.0824537   -2.0824537   -1.0592571  0.071891561   -2.0824537    1.0231967  1714436 
 9867000    1.0115144   -2.0819561   -2.0819561   -1.0594787  0.072153936   -2.0819561    1.0224774  1714436 
 9868000      1.01219   -2.0823082   -2.0823082   -1.0591478  0.070829565   -2.0823082    1.0231604  1714436 
 9869000    1.0131573   -2.0831387   -2.0831387   -1.0590005   0.07069844   -2.0831387    1.0241382  1714436 
 9870000    1.0134127   -2.0833466   -2.0833466   -1.0589502  0.066756895   -2.0833466    1.0243963  1714436 
 9871000    1.0121744   -2.0819693   -2.0819693   -1.0588247  0.071179281   -2.0819693    1.0231446  1714436 
 9872000    1.0120815    -2.082065    -2.082065   -1.0590143  0.073079149    -2.082065    1.0230507  1714436 
 9873000    1.0125163   -2.0819626   -2.0819626   -1.0584724  0.073455252   -2.0819626    1.0234902  1714436 
 9874000    1.0131062   -2.0822181   -2.0822181   -1.0581316  0.074111118   -2.0822181    1.0240865  1714436 
 9875000    1.0124043   -2.0815406   -2.0815406   -1.0581636   0.07245378   -2.0815406     1.023377  1714436 
 9876000    1.0121537   -2.0813468   -2.0813468   -1.0582231   0.07207126   -2.0813468    1.0231236  1714436 
 9877000    1.0122094   -2.0817809   -2.0817809   -1.0586008   0.06836802   -2.0817809      1.02318  1714436 
 9878000    1.0125617   -2.0821359   -2.0821359   -1.0585998  0.072464642   -2.0821359    1.0235361  1714436 
 9879000    1.0113452   -2.0809007   -2.0809007   -1.0585942  0.072313996   -2.0809007    1.0223064  1714436 
 9880000    1.0117713   -2.0816354   -2.0816354   -1.0588982  0.069030108   -2.0816354    1.0227372  1714436 
 9881000    1.0124278   -2.0822357   -2.0822357    -1.058835  0.073564128   -2.0822357    1.0234008  1714436 
 9882000    1.0113826    -2.081389    -2.081389   -1.0590448  0.070176688    -2.081389    1.0223442  1714436 
 9883000    1.0123134   -2.0826367   -2.0826367   -1.0593516   0.06579119   -2.0826367    1.0232851  1714436 
 9884000     1.011169   -2.0812037   -2.0812037   -1.0590754  0.071691303   -2.0812037    1.0221283  1714436 
 9885000    1.0100256   -2.0804277   -2.0804277   -1.0594552  0.068968615   -2.0804277    1.0209725  1714436 
 9886000    1.0105775   -2.0811512   -2.0811512   -1.0596208  0.070795727   -2.0811512    1.0215304  1714436 
 9887000    1.0110756   -2.0815915   -2.0815915   -1.0595576  0.070292259   -2.0815915    1.0220339  1714436 
 9888000    1.0104854   -2.0809599   -2.0809599   -1.0595227  0.067228422   -2.0809599    1.0214373  1714436 
 9889000    1.0108957   -2.0811713   -2.0811713   -1.0593192  0.071947603   -2.0811713     1.021852  1714436 
 9890000    1.0116656   -2.0819046   -2.0819046   -1.0592743  0.068689113   -2.0819046    1.0226303  1714436 
 9891000    1.0109774   -2.0809436   -2.0809436   -1.0590089  0.073458356   -2.0809436    1.0219347  1714436 
 9892000    1.0125542   -2.0820038   -2.0820038   -1.0584754  0.072729244   -2.0820038    1.0235285  1714436 
 9893000    1.0117471   -2.0817274   -2.0817274   -1.0590147  0.072269841   -2.0817274    1.0227127  1714436 
 9894000    1.0117714   -2.0817258   -2.0817258   -1.0589886  0.072226312   -2.0817258    1.0227372  1714436 
 9895000    1.0129551   -2.0829864   -2.0829864   -1.0590526  0.070941588   -2.0829864    1.0239337  1714436 
 9896000    1.0123691   -2.0824627   -2.0824627   -1.0591213  0.072937097   -2.0824627    1.0233414  1714436 
 9897000    1.0127199    -2.082148    -2.082148    -1.058452  0.072972977    -2.082148     1.023696  1714436 
 9898000    1.0129885   -2.0821973   -2.0821973   -1.0582297  0.072054179   -2.0821973    1.0239675  1714436 
 9899000     1.012541   -2.0817502   -2.0817502   -1.0582351  0.073041751   -2.0817502    1.0235151  1714436 
 9900000    1.0125385   -2.0820223   -2.0820223   -1.0585097  0.073141491   -2.0820223    1.0235126  1714436 
 9901000    1.0114146   -2.0809684   -2.0809684   -1.0585919  0.070884335   -2.0809684    1.0223766  1714436 
 9902000    1.0120748   -2.0814029   -2.0814029   -1.0583589  0.072957986   -2.0814029    1.0230439  1714436 
 9903000    1.0128055   -2.0816635   -2.0816635   -1.0578809   0.07067946   -2.0816635    1.0237826  1714436 
 9904000    1.0117008   -2.0805589   -2.0805589    -1.057893  0.070449924   -2.0805589    1.0226659  1714436 
 9905000    1.0116333   -2.0803647   -2.0803647   -1.0577671     0.070801   -2.0803647    1.0225976  1714436 
 9906000    1.0117234   -2.0808937   -2.0808937   -1.0582051  0.070967148   -2.0808937    1.0226887  1714436 
 9907000     1.012252   -2.0814401   -2.0814401   -1.0582171  0.067209387   -2.0814401     1.023223  1714436 
 9908000    1.0123594   -2.0814724   -2.0814724   -1.0581408  0.072090291   -2.0814724    1.0233316  1714436 
 9909000    1.0126275   -2.0818434   -2.0818434   -1.0582408  0.074539686   -2.0818434    1.0236026  1714436 
 9910000    1.0129085   -2.0819751   -2.0819751   -1.0580884  0.070961322   -2.0819751    1.0238866  1714436 
 9911000    1.0134051   -2.0821487   -2.0821487   -1.0577601   0.07037661   -2.0821487    1.0243887  1714436 
 9912000    1.0128324   -2.0814339   -2.0814339   -1.0576242  0.071363847   -2.0814339    1.0238097  1714436 
 9913000    1.0121641   -2.0812351   -2.0812351    -1.058101  0.074134122   -2.0812351    1.0231341  1714436 
 9914000    1.0127748   -2.0822694   -2.0822694   -1.0585179  0.069812827   -2.0822694    1.0237515  1714436 
 9915000    1.0122731   -2.0817604   -2.0817604    -1.058516  0.069791345   -2.0817604    1.0232444  1714436 
 9916000    1.0112216   -2.0807616   -2.0807616   -1.0585801  0.074391831   -2.0807616    1.0221815  1714436 
 9917000    1.0112179   -2.0803122   -2.0803122   -1.0581345  0.070651392   -2.0803122    1.0221777  1714436 
 9918000    1.0128436   -2.0817725   -2.0817725   -1.0579514  0.068888268   -2.0817725    1.0238211  1714436 
 9919000    1.0120511   -2.0808029   -2.0808029   -1.0577829  0.076300043   -2.0808029    1.0230199  1714436 
 9920000    1.0116339   -2.0805494   -2.0805494   -1.0579512  0.071389246   -2.0805494    1.0225982  1714436 
 9921000    1.0124796   -2.0812594   -2.0812594   -1.0578063  0.071928696   -2.0812594    1.0234531  1714436 
 9922000    1.0115603   -2.0801462   -2.0801462   -1.0576224  0.073634598   -2.0801462    1.0225238  1714436 
 9923000    1.0122323   -2.0804358   -2.0804358   -1.0572327  0.072792675   -2.0804358    1.0232032  1714436 
 9924000    1.0121872   -2.0807482   -2.0807482   -1.0575906  0.072701937   -2.0807482    1.0231576  1714436 
 9925000     1.012639   -2.0814189   -2.0814189   -1.0578047  0.072953447   -2.0814189    1.0236142  1714436 
 9926000    1.0121308    -2.081501    -2.081501   -1.0584005  0.071514485    -2.081501    1.0231006  1714436 
 9927000    1.0118521   -2.0818078   -2.0818078    -1.058989  0.067164086   -2.0818078    1.0228189  1714436 
 9928000    1.0120973   -2.0817833   -2.0817833   -1.0587165  0.070099994   -2.0817833    1.0230667  1714436 
 9929000    1.0114395    -2.081091    -2.081091   -1.0586893  0.069877198    -2.081091    1.0224017  1714436 
 9930000    1.0121277   -2.0816985   -2.0816985   -1.0586011  0.071701092   -2.0816985    1.0230974  1714436 
 9931000    1.0112971   -2.0803949   -2.0803949   -1.0581371  0.071317761   -2.0803949    1.0222578  1714436 
 9932000    1.0113899   -2.0808412   -2.0808412   -1.0584897   0.07283382   -2.0808412    1.0223516  1714436 
 9933000    1.0111083   -2.0807174   -2.0807174   -1.0586505  0.070764706   -2.0807174    1.0220669  1714436 
 9934000    1.0106362    -2.079999    -2.079999   -1.0584093  0.068849483    -2.079999    1.0215897  1714436 
 9935000    1.0106599   -2.0799374   -2.0799374   -1.0583237  0.068892085   -2.0799374    1.0216137  1714436 
 9936000    1.0115367   -2.0808373   -2.0808373   -1.0583373  0.071256971   -2.0808373       1.0225  1714436 
 9937000    1.0111677   -2.0807742   -2.0807742   -1.0586472  0.065763441   -2.0807742     1.022127  1714436 
 9938000    1.0109525   -2.0802147   -2.0802147   -1.0583052  0.070941823   -2.0802147    1.0219094  1714436 
 9939000     1.011292    -2.080923    -2.080923   -1.0586703  0.073010376    -2.080923    1.0222527  1714436 
 9940000    1.0120513   -2.0818183   -2.0818183   -1.0587982  0.068981991   -2.0818183    1.0230201  1714436 
 9941000    1.0113202   -2.0806937   -2.0806937   -1.0584126  0.071382808   -2.0806937    1.0222811  1714436 
 9942000    1.0113944    -2.080661    -2.080661   -1.0583048  0.068720733    -2.080661    1.0223561  1714436 
 9943000     1.011244   -2.0807057   -2.0807057   -1.0585015  0.070771229   -2.0807057    1.0222041  1714436 
 9944000    1.0104599   -2.0802141   -2.0802141   -1.0588026  0.071688816   -2.0802141    1.0214116  1714436 
 9945000    1.0116592   -2.0814678   -2.0814678   -1.0588439  0.066284259   -2.0814678    1.0226239  1714436 
 9946000    1.0110057   -2.0809297   -2.0809297   -1.0589665  0.072864958   -2.0809297    1.0219632  1714436 
 9947000    1.0126356   -2.0821099   -2.0821099   -1.0584991  0.074782302   -2.0821099    1.0236108  1714436 
 9948000    1.0121514   -2.0815934   -2.0815934    -1.058472  0.074048139   -2.0815934    1.0231214  1714436 
 9949000    1.0119086   -2.0809457   -2.0809457   -1.0580698  0.071948609   -2.0809457    1.0228759  1714436 
 9950000     1.012635   -2.0817373   -2.0817373   -1.0581271  0.071925301   -2.0817373    1.0236102  1714436 
 9951000    1.0114358   -2.0807188   -2.0807188   -1.0583208  0.071221649   -2.0807188     1.022398  1714436 
 9952000    1.0117442   -2.0806499   -2.0806499   -1.0579402  0.072425155   -2.0806499    1.0227097  1714436 
 9953000    1.0123856   -2.0809906   -2.0809906   -1.0576324  0.069966686   -2.0809906    1.0233581  1714436 
 9954000    1.0123067   -2.0809121   -2.0809121   -1.0576337  0.070896491   -2.0809121    1.0232784  1714436 
 9955000    1.0112734   -2.0802611   -2.0802611   -1.0580272  0.071071901   -2.0802611    1.0222339  1714436 
 9956000     1.012605   -2.0818827   -2.0818827   -1.0583029  0.068350027   -2.0818827    1.0235799  1714436 
 9957000    1.0119999   -2.0817603   -2.0817603   -1.0587921  0.067811254   -2.0817603    1.0229682  1714436 
 9958000    1.0110437   -2.0806297   -2.0806297   -1.0586281  0.068439278   -2.0806297    1.0220017  1714436 
 9959000    1.0113644   -2.0809951   -2.0809951   -1.0586693  0.070242779   -2.0809951    1.0223258  1714436 
 9960000    1.0117608   -2.0814287   -2.0814287   -1.0587022  0.070013809   -2.0814287    1.0227265  1714436 
 9961000    1.0121061   -2.0815537   -2.0815537   -1.0584781  0.068507911   -2.0815537    1.0230756  1714436 
 9962000    1.0104777   -2.0803453   -2.0803453   -1.0589158  0.074369236   -2.0803453    1.0214295  1714436 
 9963000    1.0117856   -2.0816112   -2.0816112   -1.0588596  0.074703995   -2.0816112    1.0227516  1714436 
 9964000     1.011397   -2.0812377   -2.0812377   -1.0588789   0.07208269   -2.0812377    1.0223587  1714436 
 9965000    1.0117739    -2.081665    -2.081665   -1.0589253  0.075313929    -2.081665    1.0227397  1714436 
 9966000    1.0124688    -2.082041    -2.082041   -1.0585989  0.074082651    -2.082041    1.0234422  1714436 
 9967000    1.0124592   -2.0820856   -2.0820856   -1.0586531  0.067491681   -2.0820856    1.0234325  1714436 
 9968000    1.0120888   -2.0815821   -2.0815821    -1.058524  0.075343871   -2.0815821    1.0230581  1714436 
 9969000    1.0124392   -2.0820772   -2.0820772    -1.058665  0.073637877   -2.0820772    1.0234122  1714436 
 9970000    1.0120579   -2.0816629   -2.0816629    -1.058636  0.071396555   -2.0816629    1.0230268  1714436 
 9971000    1.0118777   -2.0812666   -2.0812666   -1.0584219  0.076285179   -2.0812666    1.0228447  1714436 
 9972000    1.0117401   -2.0820245   -2.0820245   -1.0593189  0.071439721   -2.0820245    1.0227056  1714436 
 9973000    1.0119473   -2.0818586   -2.0818586   -1.0589435  0.070240827   -2.0818586    1.0229151  1714436 
 9974000    1.0120943   -2.0818672   -2.0818672   -1.0588035  0.070029512   -2.0818672    1.0230637  1714436 
 9975000    1.0120992   -2.0816918   -2.0816918   -1.0586232  0.073252699   -2.0816918    1.0230686  1714436 
 9976000    1.0110173    -2.081016    -2.081016   -1.0590411    0.0700016    -2.081016    1.0219749  1714436 
 9977000    1.0127095   -2.0818685   -2.0818685   -1.0581829  0.073940222   -2.0818685    1.0236856  1714436 
 9978000    1.0118574   -2.0816749   -2.0816749   -1.0588508    0.0740068   -2.0816749    1.0228242  1714436 
 9979000    1.0125582   -2.0821142   -2.0821142   -1.0585817  0.070968608   -2.0821142    1.0235325  1714436 
 9980000    1.0119512   -2.0815024   -2.0815024   -1.0585834  0.075241594   -2.0815024     1.022919  1714436 
 9981000    1.0123367   -2.0819736   -2.0819736    -1.058665  0.073035427   -2.0819736    1.0233086  1714436 
 9982000    1.0121065   -2.0818381   -2.0818381   -1.0587622  0.069751969   -2.0818381     1.023076  1714436 
 9983000    1.0118628   -2.0814998   -2.0814998   -1.0586702  0.074084981   -2.0814998    1.0228296  1714436 
 9984000    1.0119422   -2.0816449   -2.0816449   -1.0587351  0.071739971   -2.0816449    1.0229099  1714436 
 9985000    1.0132983   -2.0830826   -2.0830826   -1.0588019  0.072186821   -2.0830826    1.0242807  1714436 
 9986000    1.0130816   -2.0821938   -2.0821938   -1.0581322  0.071793899   -2.0821938    1.0240616  1714436 
 9987000    1.0123755   -2.0813879   -2.0813879   -1.0580399  0.070960848   -2.0813879    1.0233479  1714436 
 9988000    1.0123449   -2.0820823   -2.0820823   -1.0587654  0.071890701   -2.0820823     1.023317  1714436 
 9989000    1.0119585   -2.0816464   -2.0816464     -1.05872  0.072371837   -2.0816464    1.0229264  1714436 
 9990000    1.0105327   -2.0806286   -2.0806286   -1.0591434  0.069045594   -2.0806286    1.0214852  1714436 
 9991000    1.0110999   -2.0804209   -2.0804209   -1.0583625  0.070800299   -2.0804209    1.0220584  1714436 
 9992000    1.0112118   -2.0808012   -2.0808012   -1.0586296  0.069376816   -2.0808012    1.0221716  1714436 
 9993000    1.0108322   -2.0803435   -2.0803435   -1.0585557  0.068638252   -2.0803435    1.0217878  1714436 
 9994000    1.0115491   -2.0813293   -2.0813293   -1.0588168  0.070655987   -2.0813293    1.0225125  1714436 
 9995000    1.0116839   -2.0815246   -2.0815246   -1.0588758  0.072903128   -2.0815246    1.0226488  1714436 
 9996000    1.0121839   -2.0818271   -2.0818271   -1.0586729  0.071624997   -2.0818271    1.0231542  1714436 
 9997000    1.0113978   -2.0818148   -2.0818148   -1.0594551  0.066969339   -2.0818148    1.0223596  1714436 
 9998000     1.010442   -2.0805888   -2.0805888   -1.0591953  0.070760711   -2.0805888    1.0213934  1714436 
 9999000    1.0103519   -2.0804673   -2.0804673   -1.0591649  0.072859561   -2.0804673    1.0213024  1714436 
10000000    1.0116818   -2.0809634   -2.0809634   -1.0583167  0.070895363   -2.0809634    1.0226467  1714436 
Loop time of 27589.1 on 1048 procs for 10000000 steps with 1714436 atoms

Performance: 156583.647 tau/day, 362.462 timesteps/s
85.7% CPU use with 1048 MPI tasks x 1 OpenMP threads

MPI task timing breakdown:
Section |  min time  |  avg time  |  max time  |%varavg|  %CPU | %total
-----------------------------------------------------------------------
Pair    | 898.2      | 3304.9     | 5342.7     |1411.1 |  91.7 | 11.98
Bond    | 6.0457     | 6.9086     | 8.0769     |  10.1 | 100.0 |  0.03
Neigh   | 968.55     | 3240.9     | 4009.3     | 865.7 |  98.0 | 11.75
Comm    | 6744.6     | 13086      | 16508      |1764.9 |  85.7 | 47.43
Output  | 601.28     | 603.34     | 631.39     |  16.8 |  67.0 |  2.19
Modify  | 3982.9     | 6435.5     | 15261      |2117.5 |  79.6 | 23.33
Other   |            | 911.3      |            |       |       |  3.30

Nlocal:        1635.91 ave        2087 max        1102 min
Histogram: 2 2 1 36 229 575 178 19 3 3
Nghost:        12566.6 ave       19271 max        1141 min
Histogram: 43 13 5 16 106 140 338 244 120 23
Neighs:        30366.7 ave       51747 max        7701 min
Histogram: 63 28 30 126 215 276 153 68 34 55

Total # of neighbors = 31824333
Ave neighs/atom = 18.562567
Ave special neighs/atom = 0.0000000
Neighbor list builds = 1000000
Dangerous builds = 990000

Total wall time: 7:40:11
