LAMMPS (24 Dec 2020)
OMP_NUM_THREADS environment is not set. Defaulting to 1 thread. (src/comm.cpp:94)
  using 1 OpenMP thread(s) per MPI task
#Read the equilibrated lj fluid and add nanocubes

units           lj
atom_style      full
#atom_modify     map array first cubes
dimension       3
boundary        p p f
pair_style      lj/cut/opt 2.5

variable        sigma           equal 1.0
variable        epsilon         equal 1.0
read_restart	restart.dat.4000000
Reading restart file ...
  restart file = 24 Dec 2020, LAMMPS = 24 Dec 2020
WARNING: Restart file used different # of processors: 96 vs. 288 (src/read_restart.cpp:697)
  restoring atom style full from restart
  orthogonal box = (0.0000000 0.0000000 0.0000000) to (60.000000 60.000000 180.00000)
  4 by 4 by 18 MPI processor grid
  restoring pair style lj/cut/opt from restart
  313401 atoms
Finding 1-2 1-3 1-4 neighbors ...
  special bond factors lj:    0        0        0       
  special bond factors coul:  0        0        0       
     0 = max # of 1-2 neighbors
     0 = max # of 1-3 neighbors
     0 = max # of 1-4 neighbors
     1 = max # of special neighbors
  special bonds CPU = 2.336 seconds
  read_restart CPU = 2.613 seconds

group		solvent type 1
241392 atoms in group solvent
group 		hull  type 2
28098 atoms in group hull
group 		dummy type 3
43911 atoms in group dummy

neighbor      0.4 bin
neigh_modify  exclude molecule/intra cubes


pair_modify   shift yes

pair_coeff    1 1 1.0 1.0 #solvent
pair_coeff    2 2 1.0 1.0 1.12 #np
pair_coeff    3 3 0.0 0.0 0.0 #dummy
pair_coeff    2 3 0.0 0.0 0.0 #np dummy
pair_coeff    1 2 ${sol} 1.0 #np solvent
pair_coeff    1 2 1.0 1.0 
pair_coeff    1 3 0.0 0.0 0.0 #dummy solvent


comm_modify   mode multi cutoff/multi 1 2.5 cutoff/multi 2 2.5 cutoff/multi 3 6.95

reset_timestep 	0

balance 	1.05 shift z 10 1.05
Balancing ...
Unused restart file global fix info:
  fix style: STORE, fix ID: msd_COMPUTE_STORE
Unused restart file peratom fix info:
  fix style: STORE, fix ID: bin1_COMPUTE_STORE
Neighbor list info ...
  update every 1 steps, delay 10 steps, check yes
  max neighbors/atom: 2000, page size: 100000
  master list distance cutoff = 2.9
  ghost atom cutoff = 6.95
  binsize = 1.45, bins = 42 42 125
  1 neighbor lists, perpetual/occasional/extra = 1 0 0
  (1) pair lj/cut/opt, perpetual
      attributes: half, newton on
      pair build: half/bin/newton
      stencil: half/bin/3d/newton
      bin: standard
 rebalancing time: 0.074 seconds
  iteration count = 5
  initial/final maximal load/proc = 1960.0000 1574.0000
  initial/final imbalance factor  = 1.8011429 1.4464281
  x cuts: 0.0000000 0.25000000 0.50000000 0.75000000 1.0000000
  y cuts: 0.0000000 0.25000000 0.50000000 0.75000000 1.0000000
  z cuts: 0.0000000 0.050347222 0.095486111 0.13368056 0.17187500 0.21180556 0.24652778 0.28819444 0.32465278 0.36979167 0.41493056 0.44965278 0.49305556 0.53472222 0.57638889 0.61805556 0.67187500 0.72916667 1.0000000

####################### WALLS ###########################

variable       epsilonWall equal 2*${epsilon}
variable       epsilonWall equal 2*1
variable       repulsive   equal   0.7147*${sigma}
variable       repulsive   equal   0.7147*1
variable       full	   equal   3*${sigma}
variable       full	   equal   3*1
region         lowWall block EDGE EDGE EDGE EDGE EDGE 2

fix            topWall all wall/lj93 zhi EDGE 	       ${epsilonWall} ${sigma} ${repulsive} units box
fix            topWall all wall/lj93 zhi EDGE 	       2 ${sigma} ${repulsive} units box
fix            topWall all wall/lj93 zhi EDGE 	       2 1 ${repulsive} units box
fix            topWall all wall/lj93 zhi EDGE 	       2 1 0.7147 units box
fix            lowSol solvent wall/lj93 zlo EDGE                ${epsilonWall} ${sigma} ${full} units box
fix            lowSol solvent wall/lj93 zlo EDGE                2 ${sigma} ${full} units box
fix            lowSol solvent wall/lj93 zlo EDGE                2 1 ${full} units box
fix            lowSol solvent wall/lj93 zlo EDGE                2 1 3 units box
fix 	       lowCub cubes wall/lj93 zlo EDGE                ${epsilonWall} ${sigma} ${repulsive} units box
fix 	       lowCub cubes wall/lj93 zlo EDGE                2 ${sigma} ${repulsive} units box
fix 	       lowCub cubes wall/lj93 zlo EDGE                2 1 ${repulsive} units box
fix 	       lowCub cubes wall/lj93 zlo EDGE                2 1 0.7147 units box


###################### COMPUTES ##########################

compute        bin1 solvent chunk/atom bin/1d z lower 1.0 units box


######################  FIXES ############################


fix             peclet solvent ave/chunk 10 10 10000 bin1 density/number norm                  none ave one file density.profile

fix              temp solvent ave/chunk 10 10 10000 bin1 temp norm                  none ave one file temp.profile

fix             1 cubes rigid/nve/small molecule #temp ${temp} ${temp} 10
  create bodies CPU = 0.025 seconds
  63 rigid bodies with 72009 atoms
  6.9282032 = max distance from body owner to body atom

fix             2 solvent nve


## Thermostat
region          regthermo block EDGE EDGE EDGE EDGE 0 20
group           thermo dynamic solvent region regthermo every 1000
dynamic group thermo defined
fix             3 thermo langevin ${temp} ${temp} 10 156453
fix             3 thermo langevin 1.0 ${temp} 10 156453
fix             3 thermo langevin 1.0 1.0 10 156453

## Evaporation
region		regevap block EDGE EDGE EDGE EDGE 160 EDGE
fix		4 solvent evaporate ${evap} 1 regevap 156415
fix		4 solvent evaporate 150 1 regevap 156415


#### Load balancing

fix             bal all balance 1000 1.05 shift z 10 1.05

############### Diagnostics and computes ###################

compute        	com cubes          rigid/local   1 mol x y z
compute        	quat cubes         rigid/local   1 mol quatw quati quatj quatk

compute 	cc2 cubes 	   chunk/atom 	 molecule
compute 	msd cubes 	   msd/chunk 	 cc2

fix 		msd all ave/time  1 1 10000 c_msd[*] file dump.msd ave one mode vector

dump            1 all custom 500000 dump.lammpstrj id mol type x y z
dump		cubetrj hull custom 500000 cubes.lammpstrj id mol type x y z
dump            com cubes local 10000 dump.*.xyz c_com[*]
dump	        xyz hull xyz 100000 cubes.xyz
dump            quat cubes      local 10000 dump.*.quat c_quat[*]
#dump		mol cubes molfile 10000 mol.xyz xyz


dump            2 all image 10000 image.*.png type type
dump_modify     2 pad 8
dump		image cubes image 10000 image_cubes.*.png type type
dump_modify	image pad 8
dump            3 all movie 5000 movie.avi type type zoom 2.0
dump		4 cubes movie 5000 movie_cubes.avi type type zoom 2.0 size 1080 1920


thermo          1000
thermo_style    custom step temp epair evdwl etotal press pe ke atoms

restart         1000000 restart1.dat restart2.dat
timestep        0.005
timer           full
New timer settings: style=full  mode=nosync  timeout=off

run 		20000000
Per MPI rank memory allocation (min/avg/max) = 13.25 | 18.20 | 22.34 Mbytes
Step Temp E_pair E_vdwl TotEng Press PotEng KinEng Atoms 
       0    1.0050887    -2.657569    -2.657569   -1.4957379  0.065842925    -2.657569    1.1618311   313401 
    1000    1.0051448   -2.6585465   -2.6585465   -1.4966283  0.058992115   -2.6585465    1.1619182   313395 
    2000    1.0050258   -2.6580726   -2.6580726    -1.496266  0.062963318   -2.6580726    1.1618066   313388 
    3000    1.0018198   -2.6535005   -2.6535005   -1.4953742   0.06189903   -2.6535005    1.1581263   313381 
    4000    1.0042422    -2.657486    -2.657486   -1.4965371  0.065781141    -2.657486    1.1609489   313375 
    5000    1.0049978   -2.6580169   -2.6580169   -1.4961686  0.066116747   -2.6580169    1.1618483   313368 
    6000    1.0048309   -2.6587025   -2.6587025   -1.4970212  0.067835062   -2.6587025    1.1616813   313361 
    7000    1.0052674   -2.6588607   -2.6588607   -1.4966525  0.062221696   -2.6588607    1.1622082   313355 
    8000    1.0058625   -2.6604879   -2.6604879   -1.4975657  0.065514544   -2.6604879    1.1629222   313348 
    9000    1.0040669   -2.6578959   -2.6578959   -1.4970237  0.062480987   -2.6578959    1.1608722   313341 
   10000    1.0030418   -2.6570306   -2.6570306   -1.4973215  0.062967997   -2.6570306    1.1597091   313335 
   11000    1.0021158   -2.6558065   -2.6558065   -1.4971421  0.082452013   -2.6558065    1.1586644   313328 
   12000    1.0062433   -2.6591808   -2.6591808   -1.4957181  0.055851915   -2.6591808    1.1634627   313321 
   13000    1.0063359   -2.6591181   -2.6591181    -1.495526  0.067726738   -2.6591181    1.1635921   313315 
   14000    1.0064052   -2.6599109   -2.6599109   -1.4962127  0.069192625   -2.6599109    1.1636981   313308 
   15000    1.0049412   -2.6582995   -2.6582995   -1.4962682  0.066660885   -2.6582995    1.1620313   313301 
   16000    1.0045722     -2.65683     -2.65683   -1.4952031  0.070863463     -2.65683    1.1616269   313295 
   17000    1.0044303   -2.6579018   -2.6579018    -1.496413  0.061341353   -2.6579018    1.1614888   313288 
   18000    1.0033531   -2.6571313   -2.6571313   -1.4968622  0.071405581   -2.6571313    1.1602691   313281 
   19000    1.0044312   -2.6579094   -2.6579094   -1.4963714   0.05940828   -2.6579094     1.161538   313275 
   20000    1.0053084    -2.658964    -2.658964   -1.4963856  0.056345622    -2.658964    1.1625784   313268 
   21000    1.0024947   -2.6568365   -2.6568365    -1.497486  0.074255622   -2.6568365    1.1593504   313261 
   22000    1.0060453    -2.661681    -2.661681   -1.4982022  0.059811168    -2.661681    1.1634788   313255 
   23000    1.0030669   -2.6592039   -2.6592039   -1.4991437  0.064233604   -2.6592039    1.1600603   313248 
   24000    1.0052004   -2.6612903   -2.6612903   -1.4987366  0.061233701   -2.6612903    1.1625537   313241 
   25000    1.0050752   -2.6616672   -2.6616672    -1.499236  0.064704256   -2.6616672    1.1624311   313235 
   26000    1.0043267   -2.6599734   -2.6599734   -1.4983819  0.067815998   -2.6599734    1.1615915   313228 
   27000    1.0028822   -2.6577634   -2.6577634   -1.4978167  0.074589912   -2.6577634    1.1599466   313221 
   28000    1.0061205   -2.6611121   -2.6611121   -1.4973976  0.062678193   -2.6611121    1.1637144   313215 
   29000    1.0053656   -2.6607736   -2.6607736   -1.4979063  0.061195681   -2.6607736    1.1628673   313208 
   30000    1.0036782   -2.6577486   -2.6577486   -1.4968072  0.071767246   -2.6577486    1.1609414   313201 
   31000    1.0051952   -2.6597561   -2.6597561   -1.4970377  0.073522464   -2.6597561    1.1627184   313195 
   32000    1.0065237   -2.6617723   -2.6617723   -1.4974912  0.062832485   -2.6617723    1.1642811   313188 
   33000    1.0058456    -2.661261    -2.661261   -1.4977382  0.059040703    -2.661261    1.1635227   313181 
   34000    1.0063231   -2.6616383   -2.6616383   -1.4975408  0.056112017   -2.6616383    1.1640974   313175 
   35000    1.0054492   -2.6604152   -2.6604152   -1.4973027  0.071437949   -2.6604152    1.1631125   313168 
   36000    1.0072345   -2.6613444   -2.6613444   -1.4961407  0.062080926   -2.6613444    1.1652037   313161 
   37000     1.006547   -2.6597994   -2.6597994   -1.4953686  0.074329685   -2.6597994    1.1644308   313155 
   38000    1.0069859   -2.6609441   -2.6609441   -1.4959795   0.08522628   -2.6609441    1.1649646   313148 
   39000    1.0066138   -2.6604437   -2.6604437   -1.4958836  0.070586351   -2.6604437    1.1645601   313141 
   40000    1.0061863   -2.6592417   -2.6592417   -1.4951539  0.065226165   -2.6592417    1.1640879   313135 
   41000    1.0040589   -2.6583085   -2.6583085    -1.496656  0.073622404   -2.6583085    1.1616525   313128 
   42000    1.0035006   -2.6588574   -2.6588574   -1.4978248  0.067160634   -2.6588574    1.1610325   313121 
   43000    1.0046628   -2.6603305   -2.6603305   -1.4979311   0.06943298   -2.6603305    1.1623995   313115 
   44000    1.0013905   -2.6585045   -2.6585045   -1.4998651  0.070233373   -2.6585045    1.1586394   313108 
   45000    1.0005204   -2.6570308   -2.6570308   -1.4993723  0.062041551   -2.6570308    1.1576585   313101 
   46000    1.0027439   -2.6590309   -2.6590309   -1.4987774  0.066738582   -2.6590309    1.1602535   313095 
   47000    1.0020508   -2.6591049   -2.6591049   -1.4996276  0.056824185   -2.6591049    1.1594774   313088 
   48000    1.0021778   -2.6588245   -2.6588245   -1.4991742  0.057405195   -2.6588245    1.1596502   313081 
   49000    1.0034452   -2.6595964   -2.6595964   -1.4984574  0.059115181   -2.6595964     1.161139   313075 
   50000    1.0044287   -2.6593714   -2.6593714   -1.4970683  0.057710695   -2.6593714    1.1623032   313068 
   51000    1.0003617   -2.6553091   -2.6553091   -1.4976863  0.064613123   -2.6553091    1.1576228   313061 
   52000    1.0018638   -2.6564695   -2.6564695   -1.4970863  0.061949763   -2.6564695    1.1593832   313055 
   53000    1.0000567   -2.6551869   -2.6551869    -1.497869  0.055934458   -2.6551869    1.1573179   313048 
   54000    1.0014054   -2.6559505   -2.6559505    -1.497046  0.068259813   -2.6559505    1.1589045   313041 
   55000    1.0010629   -2.6552114   -2.6552114    -1.496681  0.071359909   -2.6552114    1.1585303   313035 
   56000    1.0023456   -2.6560921   -2.6560921   -1.4960512  0.065582334   -2.6560921    1.1600408   313028 
   57000    1.0039917   -2.6583156   -2.6583156   -1.4963438  0.072150479   -2.6583156    1.1619718   313021 
   58000    1.0031066   -2.6584603   -2.6584603   -1.4974905  0.068500587   -2.6584603    1.1609698   313015 
   59000     1.003348   -2.6593017   -2.6593017   -1.4980266   0.07091786   -2.6593017    1.1612751   313008 
   60000    1.0033919   -2.6588588   -2.6588588   -1.4975069  0.051917293   -2.6588588    1.1613519   313001 
   61000    1.0055534   -2.6608217   -2.6608217   -1.4969458  0.059170784   -2.6608217     1.163876   312995 
   62000     1.005441   -2.6608333   -2.6608333   -1.4970614  0.060735917   -2.6608333    1.1637719   312988 
   63000     1.003888   -2.6591644   -2.6591644    -1.497164  0.063644842   -2.6591644    1.1620003   312981 
   64000    1.0037546   -2.6596696   -2.6596696   -1.4978014  0.057679061   -2.6596696    1.1618682   312975 
   65000    1.0028702   -2.6588186   -2.6588186   -1.4979481  0.060064873   -2.6588186    1.1608705   312968 
   66000    1.0026945   -2.6584255   -2.6584255   -1.4977325   0.06654368   -2.6584255     1.160693   312961 
   67000    1.0037365   -2.6605131   -2.6605131   -1.4985917  0.053546909   -2.6605131    1.1619215   312955 
   68000    1.0036619   -2.6595728   -2.6595728   -1.4977116   0.06346979   -2.6595728    1.1618612   312948 
   69000    1.0024939   -2.6580992   -2.6580992   -1.4975642   0.06514361   -2.6580992     1.160535   312941 
   70000    1.0033469   -2.6592965   -2.6592965   -1.4977518  0.067082986   -2.6592965    1.1615447   312935 
   71000    1.0031651   -2.6581002   -2.6581002     -1.49674  0.082885777   -2.6581002    1.1613602   312928 
   72000    1.0036869    -2.657216    -2.657216   -1.4952256  0.074527253    -2.657216    1.1619903   312921 
   73000     1.006167    -2.659014    -2.659014   -1.4941301  0.052819948    -2.659014    1.1648839   312915 
   74000    1.0061232   -2.6598597   -2.6598597   -1.4950004  0.066510237   -2.6598597    1.1648593   312908 
   75000    1.0031734   -2.6561536   -2.6561536   -1.4946835  0.082386732   -2.6561536    1.1614701   312901 
   76000    1.0042452    -2.657597    -2.657597   -1.4948636  0.067287013    -2.657597    1.1627333   312895 
   77000    1.0030251   -2.6570147   -2.6570147    -1.495668   0.06413982   -2.6570147    1.1613466   312888 
   78000    1.0036632   -2.6585183   -2.6585183   -1.4964068  0.059543122   -2.6585183    1.1621115   312881 
   79000    1.0029162   -2.6562881   -2.6562881   -1.4950193  0.061782093   -2.6562881    1.1612688   312875 
   80000    1.0015218   -2.6561637   -2.6561637   -1.4964836  0.070338096   -2.6561637    1.1596802   312868 
   81000    1.0023156   -2.6566589   -2.6566589   -1.4960337  0.060635443   -2.6566589    1.1606253   312861 
   82000    1.0019477   -2.6559237   -2.6559237   -1.4957022  0.063772545   -2.6559237    1.1602215   312855 
   83000    1.0027714   -2.6564702   -2.6564702   -1.4952689  0.068684026   -2.6564702    1.1612013   312848 
   84000    1.0026026    -2.655929    -2.655929   -1.4948973   0.06770379    -2.655929    1.1610318   312841 
   85000    1.0012774   -2.6554744   -2.6554744   -1.4959549  0.065828613   -2.6554744    1.1595195   312835 
   86000    1.0019662   -2.6557931   -2.6557931   -1.4954501  0.056791374   -2.6557931     1.160343   312828 
   87000    1.0016348   -2.6550016   -2.6550016   -1.4950164  0.055667034   -2.6550016    1.1599852   312821 
   88000    1.0006404   -2.6552949   -2.6552949   -1.4964391  0.055923479   -2.6552949    1.1588558   312815 
   89000    1.0020252   -2.6558606   -2.6558606    -1.495375  0.055619899   -2.6558606    1.1604856   312808 
   90000    1.0011654   -2.6555962   -2.6555962   -1.4960804   0.06672484   -2.6555962    1.1595158   312801 
   91000    1.0007941   -2.6561422   -2.6561422   -1.4970342   0.06035108   -2.6561422     1.159108   312795 
   92000    1.0000881   -2.6549487   -2.6549487   -1.4966325  0.064430351   -2.6549487    1.1583162   312788 
   93000    1.0020895   -2.6567554   -2.6567554   -1.4960951  0.071765155   -2.6567554    1.1606603   312781 
   94000     1.002933   -2.6578343   -2.6578343   -1.4961747   0.06422267   -2.6578343    1.1616595   312775 
   95000     1.002685   -2.6574614   -2.6574614   -1.4960632  0.059365272   -2.6574614    1.1613983   312768 
   96000    0.9999559   -2.6564282   -2.6564282   -1.4981651  0.059482192   -2.6564282    1.1582631   312761 
   97000    1.0024347   -2.6584401   -2.6584401   -1.4972835  0.072476087   -2.6584401    1.1611567   312755 
   98000    1.0027887   -2.6573543   -2.6573543   -1.4957617  0.057687578   -2.6573543    1.1615927   312748 
   99000    1.0019864    -2.656353    -2.656353   -1.4956637  0.072919653    -2.656353    1.1606893   312741 
  100000    1.0021996   -2.6566174   -2.6566174   -1.4956588  0.068361059   -2.6566174    1.1609586   312735 
  101000    1.0043928   -2.6601311   -2.6601311   -1.4966059  0.047002339   -2.6601311    1.1635252   312728 
  102000    1.0013656   -2.6565615   -2.6565615   -1.4965171  0.069455788   -2.6565615    1.1600443   312721 
  103000   0.99942875   -2.6552935   -2.6552935   -1.4974707  0.074068274   -2.6552935    1.1578228   312715 
  104000    1.0020814   -2.6572461   -2.6572461   -1.4963243  0.065854606   -2.6572461    1.1609218   312708 
  105000   0.99831845   -2.6544707   -2.6544707   -1.4978824  0.065728268   -2.6544707    1.1565883   312701 
  106000   0.99926763   -2.6560169   -2.6560169   -1.4983068  0.059048659   -2.6560169    1.1577102   312695 
  107000    1.0005393   -2.6578015   -2.6578015   -1.4985921  0.051396067   -2.6578015    1.1592094   312688 
  108000    1.0024433   -2.6605002   -2.6605002   -1.4990588   0.06837739   -2.6605002    1.1614414   312681 
  109000   0.99975603    -2.657574    -2.657574   -1.4992239  0.070494855    -2.657574    1.1583501   312675 
  110000    1.0006009   -2.6576269   -2.6576269   -1.4982719  0.068586678   -2.6576269     1.159355   312668 
  111000    1.0023857   -2.6595915   -2.6595915   -1.4981427  0.065085973   -2.6595915    1.1614489   312661 
  112000    1.0008649   -2.6580419   -2.6580419   -1.4983328  0.068302534   -2.6580419     1.159709   312655 
  113000    1.0004626   -2.6587215   -2.6587215   -1.4994526  0.058173462   -2.6587215    1.1592688   312648 
  114000   0.99939746   -2.6571184   -2.6571184   -1.4990579  0.064933435   -2.6571184    1.1580606   312641 
  115000    1.0005207   -2.6577517   -2.6577517   -1.4983673  0.054406256   -2.6577517    1.1593844   312635 
  116000    1.0017332   -2.6601275   -2.6601275    -1.499312  0.061010635   -2.6601275    1.1608155   312628 
  117000    1.0018954   -2.6606833   -2.6606833    -1.499654  0.066747153   -2.6606833    1.1610294   312621 
  118000    1.0014064   -2.6597551   -2.6597551   -1.4992701  0.061158533   -2.6597551     1.160485   312615 
  119000    1.0009302   -2.6600232   -2.6600232   -1.5000641  0.067689435   -2.6600232    1.1599591   312608 
  120000   0.99806194   -2.6588323   -2.6588323   -1.5021713  0.077878936   -2.6588323     1.156661   312601 
  121000    1.0025794   -2.6618708   -2.6618708   -1.4999522  0.067161872   -2.6618708    1.1619186   312595 
  122000    1.0011181   -2.6602666   -2.6602666   -1.5000156  0.061348144   -2.6602666    1.1602511   312588 
  123000    1.0013997   -2.6625378   -2.6625378   -1.5019344  0.071055577   -2.6625378    1.1606034   312581 
  124000    1.0011877   -2.6620764   -2.6620764   -1.5016964   0.05608185   -2.6620764      1.16038   312575 
  125000    1.0003894   -2.6616679   -2.6616679   -1.5021872  0.062996305   -2.6616679    1.1594807   312568 
  126000   0.99878347   -2.6601237   -2.6601237   -1.5024784   0.05224134   -2.6601237    1.1576453   312561 
  127000    1.0003415   -2.6601745   -2.6601745   -1.5007011  0.066028286   -2.6601745    1.1594734   312555 
  128000    1.0011618   -2.6596572   -2.6596572    -1.499207  0.071659274   -2.6596572    1.1604503   312548 
  129000    1.0010975   -2.6601659   -2.6601659   -1.4997643  0.069721872   -2.6601659    1.1604016   312541 
  130000     1.001663   -2.6621028   -2.6621028   -1.5010233   0.06615239   -2.6621028    1.1610795   312535 
  131000   0.99830932   -2.6611783   -2.6611783   -1.5039603  0.063982268   -2.6611783    1.1572179   312528 
  132000    1.0006696   -2.6622352   -2.6622352   -1.5022554  0.065986416   -2.6622352    1.1599799   312521 
  133000   0.99981654   -2.6615386   -2.6615386   -1.5025253  0.070347409   -2.6615386    1.1590133   312515 
  134000   0.99911216   -2.6599653   -2.6599653   -1.5017426  0.073095435   -2.6599653    1.1582227   312508 
  135000    1.0007597   -2.6611813   -2.6611813   -1.5010228  0.056286166   -2.6611813    1.1601586   312501 
  136000    1.0018841   -2.6624977   -2.6624977   -1.5010133  0.067612071   -2.6624977    1.1614844   312495 
  137000    1.0018983   -2.6614228   -2.6614228   -1.4998959   0.06880506   -2.6614228    1.1615268   312488 
  138000     1.001159   -2.6595933   -2.6595933   -1.4988975  0.054913243   -2.6595933    1.1606958   312481 
  139000    1.0014952    -2.659808    -2.659808   -1.4987002  0.071123231    -2.659808    1.1611078   312475 
  140000    1.0012997   -2.6624684   -2.6624684   -1.5015612  0.066709272   -2.6624684    1.1609072   312468 
  141000    1.0011916   -2.6621777   -2.6621777   -1.5013697  0.061879707   -2.6621777    1.1608079   312461 
  142000   0.99865096   -2.6607253   -2.6607253   -1.5028409  0.072830252   -2.6607253    1.1578844   312455 
  143000    0.9984221   -2.6599401   -2.6599401   -1.5022951  0.057147616   -2.6599401     1.157645   312448 
  144000    1.0002436    -2.659912    -2.659912    -1.500129  0.063292586    -2.659912     1.159783   312441 
  145000   0.99890496   -2.6595538   -2.6595538   -1.5013007  0.068894112   -2.6595538    1.1582531   312435 
  146000   0.99938263    -2.658802    -2.658802   -1.4999691  0.064184558    -2.658802    1.1588329   312428 
  147000   0.99851318   -2.6587666   -2.6587666    -1.500916  0.069255891   -2.6587666    1.1578507   312421 
  148000   0.99918495   -2.6595043   -2.6595043   -1.5008525  0.049735102   -2.6595043    1.1586519   312415 
  149000   0.99639153   -2.6572857   -2.6572857   -1.5018472  0.060833301   -2.6572857    1.1554385   312408 
  150000   0.99731009   -2.6574309   -2.6574309   -1.5009013  0.055908773   -2.6574309    1.1565296   312401 
  151000   0.99749872   -2.6577935   -2.6577935   -1.5010229  0.064260913   -2.6577935    1.1567706   312395 
  152000   0.99820846   -2.6573155   -2.6573155   -1.4996959  0.054069711   -2.6573155    1.1576196   312388 
  153000   0.99973623   -2.6599184   -2.6599184    -1.500501  0.066709699   -2.6599184    1.1594173   312381 
  154000    1.0009653   -2.6598963   -2.6598963   -1.4990313  0.077801597   -2.6598963     1.160865   312375 
  155000   0.99911074   -2.6576931   -2.6576931   -1.4989529  0.063495439   -2.6576931    1.1587401   312368 
  156000   0.99881219   -2.6581543   -2.6581543   -1.4997344   0.07443815   -2.6581543    1.1584199   312361 
  157000   0.99916903   -2.6582113   -2.6582113   -1.4993554  0.063336071   -2.6582113     1.158856   312355 
  158000   0.99868905   -2.6576099   -2.6576099   -1.4992846  0.053977615   -2.6576099    1.1583252   312348 
  159000   0.99802123   -2.6558397   -2.6558397    -1.498263  0.067205478   -2.6558397    1.1575766   312341 
  160000   0.99944472   -2.6560932   -2.6560932   -1.4968432  0.072519146   -2.6560932      1.15925   312335 
  161000    1.0003401    -2.657976    -2.657976   -1.4976615     0.072088    -2.657976    1.1603145   312328 
  162000   0.99902576   -2.6557078   -2.6557078   -1.4968918  0.078580669   -2.6557078     1.158816   312321 
  163000    1.0007655   -2.6574969   -2.6574969   -1.4966407  0.066498322   -2.6574969    1.1608562   312315 
  164000   0.99844168   -2.6563185   -2.6563185   -1.4981319  0.053897477   -2.6563185    1.1581867   312308 
  165000   0.99851593    -2.655963    -2.655963   -1.4976642  0.061617582    -2.655963    1.1582987   312301 
  166000    1.0004853   -2.6578709   -2.6578709   -1.4972652  0.075201107   -2.6578709    1.1606056   312295 
  167000   0.99928351   -2.6560761   -2.6560761   -1.4968387  0.070771488   -2.6560761    1.1592374   312288 
  168000   0.99846965   -2.6570974   -2.6570974   -1.4987781  0.075144546   -2.6570974    1.1583192   312281 
  169000   0.99770118   -2.6561866   -2.6561866   -1.4987367  0.052613229   -2.6561866      1.15745   312275 
  170000   0.99891407   -2.6580597   -2.6580597   -1.4991767  0.049970459   -2.6580597    1.1588831   312268 
  171000    0.9971542   -2.6556376   -2.6556376   -1.4987703  0.069090054   -2.6556376    1.1568673   312261 
  172000   0.99866436   -2.6558581   -2.6558581   -1.4972165  0.059982007   -2.6558581    1.1586416   312255 
  173000   0.99994302   -2.6563385   -2.6563385   -1.4961874   0.07742061   -2.6563385    1.1601511   312248 
  174000   0.99948611   -2.6564131   -2.6564131   -1.4967662  0.072168405   -2.6564131     1.159647   312241 
  175000   0.99821413   -2.6564863   -2.6564863   -1.4982929  0.066555787   -2.6564863    1.1581934   312235 
  176000   0.99790838   -2.6565021   -2.6565021   -1.4986375  0.059824776   -2.6565021    1.1578646   312228 
  177000   0.99875449   -2.6564407   -2.6564407   -1.4975684  0.064365716   -2.6564407    1.1588723   312221 
  178000   0.99684892   -2.6543702   -2.6543702   -1.4976867  0.073006801   -2.6543702    1.1566835   312215 
  179000   0.99716957   -2.6561953   -2.6561953   -1.4991138  0.073641151   -2.6561953    1.1570815   312208 
  180000   0.99885665   -2.6555825   -2.6555825   -1.4965174  0.066903404   -2.6555825    1.1590651   312201 
  181000    0.9997968   -2.6564019   -2.6564019   -1.4962236  0.078046453   -2.6564019    1.1601784   312195 
  182000    1.0004125   -2.6567319   -2.6567319    -1.495813  0.059342773   -2.6567319    1.1609189   312188 
  183000     1.000218   -2.6578935   -2.6578935   -1.4971744  0.060356478   -2.6578935    1.1607191   312181 
  184000   0.99775623   -2.6558624   -2.6558624   -1.4979778  0.067554834   -2.6558624    1.1578846   312175 
  185000    0.9970832   -2.6569501   -2.6569501   -1.4998206  0.074521762   -2.6569501    1.1571295   312168 
  186000   0.99841661   -2.6582842   -2.6582842   -1.4995812  0.067512807   -2.6582842     1.158703   312161 
  187000   0.99678948   -2.6564384   -2.6564384   -1.4996016  0.062973159   -2.6564384    1.1568369   312155 
  188000    0.9965852    -2.658014    -2.658014   -1.5013883  0.053170242    -2.658014    1.1566257   312148 
  189000   0.99610806   -2.6574333   -2.6574333   -1.5013354  0.048580617   -2.6574333    1.1560979   312141 
  190000   0.99659719   -2.6578441   -2.6578441   -1.5011563  0.066305497   -2.6578441    1.1566878   312135 
  191000   0.99725478   -2.6597048   -2.6597048   -1.5022278  0.050590051   -2.6597048     1.157477   312128 
  192000   0.99663086   -2.6581494   -2.6581494   -1.5013706  0.073568141   -2.6581494    1.1567788   312121 
  193000    0.9988485   -2.6617036   -2.6617036   -1.5023286   0.05375874   -2.6617036     1.159375   312115 
  194000   0.99804692   -2.6606401   -2.6606401   -1.5021695  0.063457201   -2.6606401    1.1584706   312108 
  195000   0.99837862   -2.6613657   -2.6613657   -1.5024841  0.062508577   -2.6613657    1.1588816   312101 
  196000   0.99918406   -2.6614854   -2.6614854   -1.5016465  0.072970551   -2.6614854    1.1598388   312095 
  197000   0.99804412   -2.6611774   -2.6611774   -1.5026358  0.064627535   -2.6611774    1.1585416   312088 
  198000   0.99974435   -2.6624089   -2.6624089   -1.5018676  0.059940638   -2.6624089    1.1605413   312081 
  199000   0.99990571   -2.6626293   -2.6626293   -1.5018784  0.068399305   -2.6626293    1.1607509   312075 
  200000   0.99724231   -2.6603361   -2.6603361   -1.5026511  0.073927548   -2.6603361     1.157685   312068 
  201000   0.99717493   -2.6613537   -2.6613537   -1.5037209  0.062563455   -2.6613537    1.1576328   312061 
  202000   0.99842111   -2.6624525   -2.6624525   -1.5033508  0.070171684   -2.6624525    1.1591018   312055 
  203000   0.99579694   -2.6589522   -2.6589522   -1.5028709  0.058548555   -2.6589522    1.1560812   312048 
  204000   0.99683591   -2.6607299   -2.6607299   -1.5034165  0.063604813   -2.6607299    1.1573134   312041 
  205000    0.9979904   -2.6617275   -2.6617275   -1.5030515  0.070201587   -2.6617275     1.158676   312035 
  206000   0.99855545   -2.6619654   -2.6619654   -1.5026073  0.071616803   -2.6619654    1.1593581   312028 
  207000    0.9985923   -2.6624761   -2.6624761   -1.5030493  0.070327246   -2.6624761    1.1594269   312021 
  208000   0.99769013   -2.6608734   -2.6608734   -1.5024717  0.069110716   -2.6608734    1.1584016   312015 
  209000   0.99906457    -2.662988    -2.662988   -1.5029645  0.075177067    -2.662988    1.1600235   312008 
  210000   0.99910993   -2.6641925   -2.6641925   -1.5040902   0.06834862   -2.6641925    1.1601022   312001 
  211000   0.99652994   -2.6619596   -2.6619596   -1.5048308  0.066396246   -2.6619596    1.1571287   311995 
  212000   0.99658433   -2.6615236   -2.6615236   -1.5043058  0.067123608   -2.6615236    1.1572179   311988 
  213000   0.99748116   -2.6617043   -2.6617043    -1.503419  0.067415623   -2.6617043    1.1582852   311981 
  214000   0.99772908   -2.6634835   -2.6634835   -1.5048881  0.059677251   -2.6634835    1.1585954   311975 
  215000   0.99534794   -2.6602613   -2.6602613    -1.504405  0.069030374   -2.6602613    1.1558563   311968 
  216000    0.9979189   -2.6616144   -2.6616144   -1.5027465  0.071066036   -2.6616144    1.1588678   311961 
  217000   0.99704901   -2.6614616   -2.6614616   -1.5035817  0.069697568   -2.6614616    1.1578799   311955 
  218000    0.9962646   -2.6604459   -2.6604459   -1.5034509   0.05127563   -2.6604459    1.1569949   311948 
  219000   0.99859506   -2.6619575   -2.6619575   -1.5022301  0.061979162   -2.6619575    1.1597274   311941 
  220000   0.99816175   -2.6619827   -2.6619827   -1.5027362  0.066387938   -2.6619827    1.1592465   311935 
  221000   0.99592859   -2.6605447   -2.6605447   -1.5038658   0.06663899   -2.6605447    1.1566789   311928 
  222000    0.9968188   -2.6617907   -2.6617907   -1.5040519  0.060781543   -2.6617907    1.1577388   311921 
  223000   0.99695966   -2.6614298   -2.6614298   -1.5035052  0.054545681   -2.6614298    1.1579246   311915 
  224000   0.99754002   -2.6609053   -2.6609053   -1.5022806  0.062824974   -2.6609053    1.1586247   311908 
  225000   0.99820898   -2.6613504   -2.6613504   -1.5019227  0.066260256   -2.6613504    1.1594277   311901 
  226000   0.99961288   -2.6615605   -2.6615605   -1.5004799  0.069836223   -2.6615605    1.1610807   311895 
  227000   0.99896103   -2.6610199   -2.6610199   -1.5006704  0.065137817   -2.6610199    1.1603496   311888 
  228000    0.9984475   -2.6597911   -2.6597911    -1.500012  0.070333703   -2.6597911    1.1597791   311881 
  229000   0.99749984   -2.6600047   -2.6600047   -1.5013041  0.066202543   -2.6600047    1.1587006   311875 
  230000   0.99710178   -2.6594301   -2.6594301   -1.5011659  0.078769821   -2.6594301    1.1582642   311868 
  231000   0.99855494   -2.6609576   -2.6609576   -1.5009793  0.069707508   -2.6609576    1.1599783   311861 
  232000   0.99537776   -2.6585104   -2.6585104   -1.5022006  0.073668181   -2.6585104    1.1563097   311855 
  233000   0.99583779   -2.6588493   -2.6588493   -1.5019791  0.064513875   -2.6588493    1.1568701   311848 
  234000   0.99601787   -2.6594307   -2.6594307   -1.5023254  0.062561234   -2.6594307    1.1571053   311841 
  235000   0.99630342   -2.6594349   -2.6594349   -1.5019756  0.068961448   -2.6594349    1.1574593   311835 
  236000   0.99651246   -2.6602944   -2.6602944   -1.5025663  0.058634213   -2.6602944    1.1577281   311828 
  237000   0.99532514   -2.6596837   -2.6596837    -1.503309  0.064187205   -2.6596837    1.1563747   311821 
  238000   0.99604888   -2.6584934   -2.6584934   -1.5012556  0.059338846   -2.6584934    1.1572378   311815 
  239000   0.99431178   -2.6569716   -2.6569716   -1.5017261  0.065731882   -2.6569716    1.1552455   311808 
  240000   0.99600373   -2.6595209   -2.6595209   -1.5022836   0.06851136   -2.6595209    1.1572373   311801 
  241000   0.99497637   -2.6593872   -2.6593872   -1.5033213  0.066030781   -2.6593872    1.1560659   311795 
  242000   0.99726694   -2.6619505   -2.6619505   -1.5031972  0.056945107   -2.6619505    1.1587533   311788 
  243000   0.99592832   -2.6623195   -2.6623195   -1.5050956  0.053481693   -2.6623195    1.1572239   311781 
  244000   0.99760868   -2.6640106   -2.6640106   -1.5048119  0.045862548   -2.6640106    1.1591987   311775 
  245000   0.99692421   -2.6639523   -2.6639523    -1.505523  0.050941535   -2.6639523    1.1584294   311768 
  246000   0.99614237   -2.6614419   -2.6614419    -1.503895   0.06855832   -2.6614419    1.1575469   311761 
  247000   0.99735299   -2.6622386   -2.6622386   -1.5032626  0.062251363   -2.6622386     1.158976   311755 
  248000    0.9963079   -2.6609905   -2.6609905    -1.503203  0.064916836   -2.6609905    1.1577875   311748 
  249000   0.99799866   -2.6630041   -2.6630041   -1.5032258  0.061260251   -2.6630041    1.1597784   311741 
  250000   0.99691297   -2.6616866   -2.6616866   -1.5031477  0.054656762   -2.6616866     1.158539   311735 
  251000   0.99623631   -2.6622756   -2.6622756    -1.504497  0.075958977   -2.6622756    1.1577786   311728 
  252000   0.99744228   -2.6634864   -2.6634864   -1.5042802  0.069797436   -2.6634864    1.1592062   311721 
  253000   0.99811979   -2.6645106   -2.6645106   -1.5044947  0.065948848   -2.6645106    1.1600159   311715 
  254000   0.99852928   -2.6649863   -2.6649863   -1.5044685  0.061052511   -2.6649863    1.1605178   311708 
  255000   0.99538208   -2.6613181   -2.6613181   -1.5044321  0.071539395   -2.6613181    1.1568861   311701 
  256000   0.99861805   -2.6640025   -2.6640025   -1.5033331  0.060502922   -2.6640025    1.1606694   311695 
  257000   0.99569869   -2.6607768   -2.6607768   -1.5034745  0.077219779   -2.6607768    1.1573023   311688 
  258000   0.99938131   -2.6633121   -2.6633121   -1.5017034  0.059840841   -2.6633121    1.1616087   311681 
  259000   0.99749003   -2.6611834   -2.6611834   -1.5017507  0.072275895   -2.6611834    1.1594327   311675 
  260000    0.9965369   -2.6620472   -2.6620472   -1.5036963  0.065039789   -2.6620472    1.1583509   311668 
  261000   0.99742239   -2.6630659   -2.6630659   -1.5036597    0.0658698   -2.6630659    1.1594062   311661 
  262000   0.99525014   -2.6612361   -2.6612361   -1.5043327  0.068640895   -2.6612361    1.1569034   311655 
  263000   0.99467699   -2.6620539   -2.6620539   -1.5057907  0.053950954   -2.6620539    1.1562632   311648 
  264000   0.99571438   -2.6630545   -2.6630545   -1.5055594  0.052438525   -2.6630545    1.1574951   311641 
  265000   0.99411923   -2.6602438   -2.6602438   -1.5045808  0.071122226   -2.6602438     1.155663   311635 
  266000   0.99674342   -2.6618218   -2.6618218   -1.5030821  0.068877976   -2.6618218    1.1587397   311628 
  267000   0.99629471   -2.6607423   -2.6607423   -1.5024983  0.073472003   -2.6607423     1.158244   311621 
  268000   0.99577508   -2.6601648   -2.6601648   -1.5025026  0.060910162   -2.6601648    1.1576622   311615 
  269000   0.99719016   -2.6616783   -2.6616783   -1.5023449  0.057665823   -2.6616783    1.1593334   311608 
  270000   0.99495869   -2.6593731   -2.6593731    -1.502608  0.059957137   -2.6593731    1.1567651   311601 
  271000   0.99401631    -2.658225    -2.658225   -1.5025333   0.06028668    -2.658225    1.1556917   311595 
  272000   0.99299153   -2.6571725   -2.6571725   -1.5026464  0.061063945   -2.6571725    1.1545262   311588 
  273000   0.99473797    -2.660101    -2.660101   -1.5035183  0.070169758    -2.660101    1.1565827   311581 
  274000   0.99432621    -2.657889    -2.657889   -1.5017628  0.060462979    -2.657889    1.1561262   311575 
  275000   0.99388489   -2.6570791   -2.6570791   -1.5014401  0.069370057   -2.6570791     1.155639   311568 
  276000   0.99621471   -2.6589636   -2.6589636   -1.5005895  0.063733193   -2.6589636    1.1583741   311561 
  277000   0.99700332   -2.6588381   -2.6588381   -1.4995248  0.062217263   -2.6588381    1.1593134   311555 
  278000   0.99594847   -2.6593265   -2.6593265   -1.5012137  0.062184557   -2.6593265    1.1581128   311548 
  279000   0.99586029   -2.6596468   -2.6596468   -1.5016106  0.076291157   -2.6596468    1.1580363   311541 
  280000   0.99405734   -2.6575088   -2.6575088   -1.5015468  0.067138046   -2.6575088     1.155962   311535 
  281000   0.99523399   -2.6598443   -2.6598443    -1.502488  0.058102611   -2.6598443    1.1573563   311528 
  282000   0.99570848   -2.6599158   -2.6599158   -1.5019817  0.055715785   -2.6599158    1.1579341   311521 
  283000   0.99434063   -2.6574859   -2.6574859   -1.5011202  0.060976641   -2.6574859    1.1563657   311515 
  284000   0.99525127   -2.6577389   -2.6577389   -1.5002882  0.064075456   -2.6577389    1.1574507   311508 
  285000   0.99790156   -2.6600487   -2.6600487   -1.4994897  0.065432612   -2.6600487     1.160559   311501 
  286000   0.99866512   -2.6608283   -2.6608283   -1.4993589  0.057088637   -2.6608283    1.1614694   311495 
  287000   0.99967684   -2.6617581   -2.6617581   -1.4990859  0.061659694   -2.6617581    1.1626722   311488 
  288000   0.99607976   -2.6582495   -2.6582495   -1.4997348  0.070485512   -2.6582495    1.1585146   311481 
  289000   0.99746224   -2.6603905   -2.6603905   -1.5002456  0.064104118   -2.6603905    1.1601449   311475 
  290000   0.99615778   -2.6597548   -2.6597548    -1.501101  0.059305213   -2.6597548    1.1586537   311468 
  291000   0.99578495   -2.6580183   -2.6580183   -1.4997722  0.056840446   -2.6580183    1.1582461   311461 
  292000   0.99625745   -2.6588845   -2.6588845   -1.5000665  0.062063434   -2.6588845     1.158818   311455 
  293000   0.99856761   -2.6618514   -2.6618514   -1.5003201  0.053578335   -2.6618514    1.1615312   311448 
  294000   0.99337207    -2.656773    -2.656773   -1.5012592  0.069346444    -2.656773    1.1555138   311441 
  295000    0.9943016   -2.6580595   -2.6580595   -1.5014422  0.060770474   -2.6580595    1.1566173   311435 
  296000   0.99577121   -2.6583773   -2.6583773   -1.5000244  0.051125791   -2.6583773    1.1583529   311428 
  297000   0.99370133   -2.6571283   -2.6571283   -1.5011573  0.059664468   -2.6571283     1.155971   311421 
  298000   0.99609505   -2.6598198   -2.6598198   -1.5010418  0.052203646   -2.6598198    1.1587779   311415 
  299000   0.99523553   -2.6580972   -2.6580972   -1.5002931  0.058901611   -2.6580972    1.1578041   311408 
  300000   0.99323426   -2.6580275   -2.6580275   -1.5025256  0.065717876   -2.6580275    1.1555019   311401 
  301000   0.99341025   -2.6587187   -2.6587187   -1.5029898  0.051119376   -2.6587187    1.1557289   311395 
  302000   0.99227705   -2.6566558   -2.6566558   -1.5022193  0.058786518   -2.6566558    1.1544365   311388 
  303000   0.99354011   -2.6570007   -2.6570007   -1.5010688  0.073468166   -2.6570007    1.1559319   311381 
  304000   0.99415434   -2.6575853   -2.6575853   -1.5009164  0.074238965   -2.6575853    1.1566688   311375 
  305000   0.99598118   -2.6591818   -2.6591818   -1.5003614  0.063596954   -2.6591818    1.1588204   311368 
  306000   0.99374084   -2.6575925   -2.6575925   -1.5013527  0.072863184   -2.6575925    1.1562397   311361 
  307000   0.99239456   -2.6580445   -2.6580445   -1.5033489  0.064692755   -2.6580445    1.1546956   311355 
  308000   0.99520288   -2.6606896   -2.6606896   -1.5027004  0.053264693   -2.6606896    1.1579892   311348 
  309000   0.99347891   -2.6590542   -2.6590542    -1.503045   0.06489388   -2.6590542    1.1560092   311341 
  310000   0.99661642   -2.6627802   -2.6627802   -1.5030978  0.046862182   -2.6627802    1.1596824   311335 
  311000   0.99466035   -2.6618233   -2.6618233    -1.504391  0.064095424   -2.6618233    1.1574323   311328 
  312000   0.99208979   -2.6590158   -2.6590158   -1.5045488  0.065500325   -2.6590158     1.154467   311321 
  313000    0.9937433   -2.6601287   -2.6601287   -1.5037152  0.061613893   -2.6601287    1.1564134   311315 
  314000   0.99544565    -2.661251    -2.661251   -1.5028305  0.054072046    -2.661251    1.1584205   311308 
  315000   0.99371498   -2.6603575   -2.6603575    -1.503925  0.059809464   -2.6603575    1.1564325   311301 
  316000   0.99602239     -2.66377     -2.66377   -1.5046299  0.049289123     -2.66377    1.1591401   311295 
  317000   0.99574064    -2.663584    -2.663584   -1.5047458  0.047737954    -2.663584    1.1588382   311288 
  318000    0.9956688   -2.6630703   -2.6630703   -1.5042896  0.064786794   -2.6630703    1.1587807   311281 
  319000   0.99453395   -2.6614749   -2.6614749   -1.5039926  0.064864034   -2.6614749    1.1574822   311275 
  320000    0.9933144    -2.660804    -2.660804   -1.5047151  0.066310157    -2.660804    1.1560889   311268 
  321000   0.99388088   -2.6619289   -2.6619289   -1.5051547  0.058558995   -2.6619289    1.1567742   311261 
  322000   0.99497114   -2.6627913   -2.6627913   -1.5047258  0.056170653   -2.6627913    1.1580655   311255 
  323000     0.993812   -2.6621384   -2.6621384   -1.5053961  0.052514058   -2.6621384    1.1567423   311248 
  324000   0.99247315   -2.6610608   -2.6610608   -1.5058508  0.067863708   -2.6610608      1.15521   311241 
  325000   0.99557439   -2.6636122   -2.6636122   -1.5047701  0.064939613   -2.6636122    1.1588421   311235 
  326000   0.99449885   -2.6632823   -2.6632823   -1.5056661  0.065327056   -2.6632823    1.1576162   311228 
  327000    0.9927875   -2.6624629   -2.6624629   -1.5068127  0.055060554   -2.6624629    1.1556501   311221 
  328000    0.9939098   -2.6627624   -2.6627624   -1.5057836     0.066902   -2.6627624    1.1569788   311215 
  329000   0.99358528   -2.6624834   -2.6624834   -1.5058563  0.067658257   -2.6624834    1.1566271   311208 
  330000   0.99452921   -2.6623546   -2.6623546   -1.5046027  0.063672201   -2.6623546     1.157752   311201 
  331000   0.99464454   -2.6644188   -2.6644188   -1.5065103  0.071543781   -2.6644188    1.1579085   311195 
  332000   0.99469909   -2.6656058   -2.6656058   -1.5076077   0.05950511   -2.6656058    1.1579981   311188 
  333000   0.99376887    -2.663654    -2.663654   -1.5067128   0.06144198    -2.663654    1.1569412   311181 
  334000   0.99315273   -2.6628772   -2.6628772   -1.5066311  0.058328267   -2.6628772    1.1562462   311175 
  335000   0.99257299   -2.6645237   -2.6645237   -1.5089265  0.066173682   -2.6645237    1.1555972   311168 
  336000   0.99329759    -2.664039    -2.664039   -1.5075722  0.072507043    -2.664039    1.1564668   311161 
  337000   0.99188969   -2.6630153   -2.6630153   -1.5081653  0.066823595   -2.6630153    1.1548499   311155 
  338000   0.99406403   -2.6647135   -2.6647135   -1.5073059  0.055857343   -2.6647135    1.1574075   311148 
  339000   0.99289298   -2.6638209   -2.6638209   -1.5077508  0.053573949   -2.6638209    1.1560701   311141 
  340000   0.99478203   -2.6664742   -2.6664742   -1.5081823  0.061512178   -2.6664742    1.1582919   311135 
  341000   0.99248356   -2.6634207   -2.6634207    -1.507779  0.070189634   -2.6634207    1.1556417   311128 
  342000   0.99240883   -2.6643542   -2.6643542   -1.5087736  0.072385082   -2.6643542    1.1555806   311121 
  343000   0.99475984   -2.6662697   -2.6662697   -1.5079292  0.064490393   -2.6662697    1.1583405   311115 
  344000   0.99365569   -2.6661381   -2.6661381   -1.5090573  0.077928089   -2.6661381    1.1570809   311108 
  345000   0.99423896   -2.6657998   -2.6657998   -1.5080137  0.069138947   -2.6657998    1.1577861   311101 
  346000   0.99499086   -2.6663196   -2.6663196   -1.5076356  0.068528588   -2.6663196     1.158684   311095 
  347000   0.99281719   -2.6639121   -2.6639121   -1.5077333  0.052042062   -2.6639121    1.1561788   311088 
  348000   0.99256648   -2.6622824   -2.6622824   -1.5063696  0.075143329   -2.6622824    1.1559128   311081 
  349000   0.99403528   -2.6652801   -2.6652801   -1.5076344  0.062196919   -2.6652801    1.1576457   311075 
  350000   0.99279156   -2.6651563   -2.6651563   -1.5089331  0.052224295   -2.6651563    1.1562233   311068 
  351000   0.99307892    -2.664839    -2.664839   -1.5082551   0.06422026    -2.664839     1.156584   311061 
  352000   0.99368032   -2.6643806   -2.6643806   -1.5070739  0.049837133   -2.6643806    1.1573067   311055 
  353000   0.99390791   -2.6640359   -2.6640359   -1.5064381  0.067432998   -2.6640359    1.1575978   311048 
  354000   0.99295505   -2.6640902   -2.6640902   -1.5075761    0.0549666   -2.6640902    1.1565141   311041 
  355000   0.99327227   -2.6634168   -2.6634168    -1.506511  0.067085627   -2.6634168    1.1569058   311035 
  356000   0.99225995    -2.662808    -2.662808   -1.5070553  0.053758559    -2.662808    1.1557528   311028 
  357000   0.99266736   -2.6634741   -2.6634741   -1.5072207  0.068889079   -2.6634741    1.1562533   311021 
  358000    0.9935435   -2.6634054   -2.6634054   -1.5061093  0.072112319   -2.6634054    1.1572962   311015 
  359000   0.99417071    -2.665043    -2.665043   -1.5069902  0.059972407    -2.665043    1.1580528   311008 
  360000   0.99182779   -2.6622583   -2.6622583   -1.5069086  0.050803431   -2.6622583    1.1553497   311001 
  361000   0.99049643   -2.6617938   -2.6617938   -1.5079727  0.064882316   -2.6617938    1.1538211   310995 
  362000   0.99230154   -2.6636353   -2.6636353   -1.5076854    0.0635471   -2.6636353    1.1559499   310988 
  363000   0.99227855   -2.6627852   -2.6627852   -1.5068361    0.0734771   -2.6627852    1.1559491   310981 
  364000   0.99367558   -2.6633345   -2.6633345   -1.5057356  0.066095481   -2.6633345    1.1575989   310975 
  365000   0.99300689   -2.6635891   -2.6635891   -1.5067431  0.066262505   -2.6635891    1.1568459   310968 
  366000   0.99392598   -2.6653912   -2.6653912   -1.5074484  0.066080054   -2.6653912    1.1579427   310961 
  367000   0.99556946   -2.6674904   -2.6674904   -1.5076106  0.050973906   -2.6674904    1.1598798   310955 
  368000   0.99360897   -2.6654469   -2.6654469   -1.5078251  0.057914421   -2.6654469    1.1576218   310948 
  369000   0.99389726   -2.6631738   -2.6631738   -1.5051901  0.060830992   -2.6631738    1.1579838   310941 
  370000   0.99287967   -2.6626264   -2.6626264   -1.5058059  0.056166014   -2.6626264    1.1568205   310935 
  371000   0.99339201   -2.6619556   -2.6619556   -1.5045121  0.070630028   -2.6619556    1.1574435   310928 
  372000   0.99243951   -2.6621663   -2.6621663   -1.5058066  0.067153955   -2.6621663    1.1563597   310921 
  373000   0.99236939   -2.6634592   -2.6634592   -1.5071589  0.060781703   -2.6634592    1.1563003   310915 
  374000   0.99315284    -2.664866    -2.664866   -1.5076268   0.06435502    -2.664866    1.1572392   310908 
  375000   0.99394258   -2.6655457   -2.6655457   -1.5073601  0.061721128   -2.6655457    1.1581856   310901 
  376000   0.99142722   -2.6639545   -2.6639545   -1.5086777  0.065306466   -2.6639545    1.1552768   310895 
  377000   0.99231309   -2.6631163   -2.6631163   -1.5067812  0.062038757   -2.6631163    1.1563351   310888 
  378000   0.99320916   -2.6640483   -2.6640483   -1.5066429  0.060626697   -2.6640483    1.1574054   310881 
  379000   0.99425414   -2.6664982   -2.6664982   -1.5078527  0.056611721   -2.6664982    1.1586455   310875 
  380000   0.99162847     -2.66359     -2.66359   -1.5079783  0.064819995     -2.66359    1.1556117   310868 
  381000   0.99171263   -2.6644865   -2.6644865   -1.5087507  0.065969192   -2.6644865    1.1557358   310861 
  382000   0.99243185   -2.6648124   -2.6648124   -1.5082161  0.079386192   -2.6648124    1.1565963   310855 
  383000   0.99506392   -2.6670833   -2.6670833   -1.5073934  0.066832802   -2.6670833    1.1596899   310848 
  384000   0.99207351   -2.6644267   -2.6644267   -1.5081959  0.071234721   -2.6644267    1.1562308   310841 
  385000   0.99189071   -2.6659225   -2.6659225   -1.5098825  0.074912971   -2.6659225      1.15604   310835 
  386000   0.99289874   -2.6673039   -2.6673039    -1.510063  0.062391072   -2.6673039    1.1572409   310828 
  387000   0.99306013   -2.6671996   -2.6671996   -1.5097445  0.070165622   -2.6671996    1.1574551   310821 
  388000   0.99092831   -2.6651128   -2.6651128   -1.5101201  0.064932643   -2.6651128    1.1549927   310815 
  389000   0.99232669   -2.6670086   -2.6670086   -1.5103599  0.063130839   -2.6670086    1.1566486   310808 
  390000   0.99031809   -2.6650945   -2.6650945    -1.510761  0.071936316   -2.6650945    1.1543334   310801 
  391000   0.99067304   -2.6637021   -2.6637021   -1.5089327   0.06068799   -2.6637021    1.1547694   310795 
  392000   0.99132234    -2.665524    -2.665524   -1.5099717  0.053074579    -2.665524    1.1555523   310788 
  393000   0.99087171   -2.6650553   -2.6650553   -1.5100022  0.039029336   -2.6650553    1.1550531   310781 
  394000   0.99089717   -2.6642145   -2.6642145   -1.5091094  0.058787893   -2.6642145     1.155105   310775 
  395000   0.99095055   -2.6645641   -2.6645641   -1.5093708  0.071715161   -2.6645641    1.1551933   310768 
  396000   0.99451799   -2.6685761   -2.6685761    -1.509198  0.058299351   -2.6685761    1.1593781   310761 
  397000   0.99248953   -2.6653715   -2.6653715   -1.5083358  0.050504947   -2.6653715    1.1570357   310755 
  398000   0.99069063   -2.6657754   -2.6657754   -1.5108108  0.048354032   -2.6657754    1.1549646   310748 
  399000   0.99166198   -2.6662067   -2.6662067   -1.5100837  0.067249075   -2.6662067    1.1561231   310741 
  400000   0.99289127   -2.6668578   -2.6668578   -1.5092793  0.072710866   -2.6668578    1.1575786   310735 
  401000   0.99143469   -2.6659045   -2.6659045   -1.5099981  0.059273711   -2.6659045    1.1559064   310728 
  402000   0.98965271   -2.6644244   -2.6644244   -1.5105695  0.072409373   -2.6644244    1.1538548   310721 
  403000   0.99030022   -2.6663012   -2.6663012   -1.5116691  0.058801568   -2.6663012    1.1546321   310715 
  404000   0.99243034   -2.6682768   -2.6682768    -1.511135  0.056900198   -2.6682768    1.1571417   310708 
  405000    0.9896919   -2.6647448   -2.6647448     -1.51077  0.066671008   -2.6647448    1.1539748   310701 
  406000    0.9902506   -2.6652761   -2.6652761   -1.5106276  0.057889665   -2.6652761    1.1546486   310695 
  407000   0.99131564   -2.6659794   -2.6659794    -1.510063  0.061339891   -2.6659794    1.1559164   310688 
  408000   0.98939545    -2.663312    -2.663312   -1.5096085  0.068673307    -2.663312    1.1537034   310681 
  409000   0.99202906   -2.6674759   -2.6674759   -1.5106792  0.065803444   -2.6674759    1.1567967   310675 
  410000   0.99153298     -2.66643     -2.66643   -1.5101857  0.072569419     -2.66643    1.1562443   310668 
  411000   0.99101636   -2.6660932   -2.6660932   -1.5104253   0.07193439   -2.6660932    1.1556679   310661 
  412000   0.99310345   -2.6677355   -2.6677355   -1.5096114  0.064313219   -2.6677355    1.1581241   310655 
  413000   0.99364346   -2.6697379   -2.6697379   -1.5109579   0.06736695   -2.6697379      1.15878   310648 
  414000   0.99248906   -2.6683464   -2.6683464   -1.5108866  0.068824889   -2.6683464    1.1574598   310641 
  415000   0.99231087   -2.6685853   -2.6685853   -1.5113109  0.062705073   -2.6685853    1.1572744   310635 
  416000   0.98958724   -2.6675179   -2.6675179   -1.5133939   0.05974467   -2.6675179    1.1541239   310628 
  417000   0.99074095   -2.6677753   -2.6677753   -1.5122797  0.057342152   -2.6677753    1.1554955   310621 
  418000   0.99183148   -2.6674763   -2.6674763   -1.5106865  0.070583955   -2.6674763    1.1567897   310615 
  419000   0.99212477    -2.667843    -2.667843   -1.5106852  0.056408251    -2.667843    1.1571579   310608 
  420000   0.99189328   -2.6669881   -2.6669881   -1.5100741   0.06545671   -2.6669881     1.156914   310601 
  421000   0.99173094   -2.6657675   -2.6657675   -1.5090205  0.067073167   -2.6657675     1.156747   310595 
  422000   0.99126611   -2.6658791   -2.6658791   -1.5096483  0.067097307   -2.6658791    1.1562308   310588 
  423000   0.99132266   -2.6659794   -2.6659794   -1.5096565  0.062989441   -2.6659794    1.1563229   310581 
  424000    0.9922068   -2.6666163   -2.6666163   -1.5092397  0.072946729   -2.6666163    1.1573765   310575 
  425000   0.99188013    -2.667048    -2.667048   -1.5100265  0.074774897    -2.667048    1.1570216   310568 
  426000   0.99544895    -2.670592    -2.670592   -1.5093813  0.066452682    -2.670592    1.1612107   310561 
  427000   0.99322071   -2.6678581   -2.6678581   -1.5092242  0.070226365   -2.6678581    1.1586338   310555 
  428000    0.9933319   -2.6671928   -2.6671928   -1.5084031  0.062907411   -2.6671928    1.1587897   310548 
  429000   0.99089285   -2.6635436   -2.6635436   -1.5075732  0.066660783   -2.6635436    1.1559704   310541 
  430000   0.99200404   -2.6650761   -2.6650761   -1.5077871  0.057214679   -2.6650761    1.1572891   310535 
  431000   0.99249086   -2.6646064   -2.6646064   -1.5067233  0.058023008   -2.6646064    1.1578831   310528 
  432000   0.99134143   -2.6634449   -2.6634449   -1.5068767  0.061249929   -2.6634449    1.1565682   310521 
  433000    0.9924517   -2.6651149   -2.6651149    -1.507229  0.048769141   -2.6651149    1.1578859   310515 
  434000   0.99154417   -2.6635743   -2.6635743   -1.5067212  0.066300708   -2.6635743    1.1568532   310508 
  435000   0.99213097   -2.6633095   -2.6633095   -1.5057456  0.047894624   -2.6633095    1.1575639   310501 
  436000   0.99144025   -2.6614504   -2.6614504   -1.5046701  0.057923803   -2.6614504    1.1567803   310495 
  437000   0.99308733   -2.6634698   -2.6634698   -1.5047416  0.064011595   -2.6634698    1.1587282   310488 
  438000   0.99199806   -2.6627139   -2.6627139   -1.5052306  0.058069983   -2.6627139    1.1574834   310481 
  439000   0.98954243   -2.6610118   -2.6610118   -1.5063714  0.064398658   -2.6610118    1.1546404   310475 
  440000   0.99169327   -2.6632771   -2.6632771    -1.506101  0.056467062   -2.6632771    1.1571762   310468 
  441000   0.98976005   -2.6596398   -2.6596398   -1.5046934  0.060169355   -2.6596398    1.1549464   310461 
  442000   0.98996301   -2.6601897   -2.6601897   -1.5049841  0.056297212   -2.6601897    1.1552056   310455 
  443000   0.99206183   -2.6630809   -2.6630809   -1.5054001   0.06551926   -2.6630809    1.1576808   310448 
  444000   0.99074012   -2.6617211   -2.6617211   -1.5055566  0.058827318   -2.6617211    1.1561645   310441 
  445000   0.98964733   -2.6593317   -2.6593317   -1.5044201  0.066705685   -2.6593317    1.1549116   310435 
  446000   0.98985531   -2.6620705   -2.6620705   -1.5068902  0.056119081   -2.6620705    1.1551804   310428 
  447000   0.98775476   -2.6605892   -2.6605892   -1.5078342  0.050359831   -2.6605892     1.152755   310421 
  448000   0.98819981   -2.6604686   -2.6604686   -1.5071719  0.060653783   -2.6604686    1.1532967   310415 
  449000   0.99084879   -2.6630441   -2.6630441   -1.5066298  0.043750885   -2.6630441    1.1564143   310408 
  450000   0.98853994   -2.6610155   -2.6610155   -1.5072698  0.051439003   -2.6610155    1.1537456   310401 
  451000   0.98890232   -2.6612611   -2.6612611   -1.5070702  0.052238312   -2.6612611    1.1541909   310395 
  452000   0.99072518    -2.663164    -2.663164   -1.5068195  0.046925168    -2.663164    1.1563445   310388 
  453000   0.98864245   -2.6602646   -2.6602646   -1.5063249  0.052044145   -2.6602646    1.1539396   310381 
  454000    0.9891059   -2.6626513   -2.6626513   -1.5081484  0.060821293   -2.6626513    1.1545029   310375 
  455000   0.98930219   -2.6623851   -2.6623851    -1.507627  0.070244658   -2.6623851     1.154758   310368 
  456000   0.98966299    -2.662738    -2.662738   -1.5075328  0.067185458    -2.662738    1.1552052   310361 
  457000   0.99124227    -2.664813    -2.664813   -1.5077419  0.067379897    -2.664813    1.1570711   310355 
  458000   0.99000248   -2.6624557   -2.6624557   -1.5068058  0.080937544   -2.6624557    1.1556499   310348 
  459000   0.99041988   -2.6647163   -2.6647163    -1.508553  0.068381429   -2.6647163    1.1561632   310341 
  460000   0.99230802   -2.6679753   -2.6679753   -1.5095856  0.052087812   -2.6679753    1.1583898   310335 
  461000   0.98853393   -2.6651902   -2.6651902   -1.5111802  0.061145891   -2.6651902      1.15401   310328 
  462000   0.99064875   -2.6673849   -2.6673849     -1.51088  0.065366084   -2.6673849    1.1565049   310321 
  463000   0.99243182   -2.6698442   -2.6698442   -1.5112353  0.068354918   -2.6698442    1.1586089   310315 
  464000   0.99450381   -2.6709241   -2.6709241     -1.50987  0.063294545   -2.6709241    1.1610541   310308 
  465000   0.99261876   -2.6680614   -2.6680614   -1.5091819  0.067887781   -2.6680614    1.1588795   310301 
  466000   0.99018781   -2.6669621   -2.6669621   -1.5108984  0.063220213   -2.6669621    1.1560637   310295 
  467000   0.98957092   -2.6658429   -2.6658429   -1.5104733  0.067396148   -2.6658429    1.1553695   310288 
  468000   0.98829065   -2.6672205   -2.6672205   -1.5133197  0.070252373   -2.6672205    1.1539008   310281 
  469000   0.99074409   -2.6692726   -2.6692726   -1.5124849  0.069008834   -2.6692726    1.1567877   310275 
  470000   0.98979662   -2.6677202   -2.6677202   -1.5120127  0.065112162   -2.6677202    1.1557075   310268 
  471000   0.99099482   -2.6685028   -2.6685028   -1.5113701  0.064067372   -2.6685028    1.1571327   310261 
  472000    0.9902589   -2.6670211   -2.6670211   -1.5107254  0.065380398   -2.6670211    1.1562957   310255 
  473000   0.99148794   -2.6717737   -2.6717737   -1.5140167  0.081138582   -2.6717737     1.157757   310248 
  474000    0.9884231   -2.6683431   -2.6683431   -1.5141389  0.050545755   -2.6683431    1.1542042   310241 
  475000   0.98683297   -2.6670377   -2.6670377    -1.514668  0.055128428   -2.6670377    1.1523697   310235 
  476000   0.98865504   -2.6682455   -2.6682455    -1.513722  0.071339712   -2.6682455    1.1545234   310228 
  477000   0.98909402   -2.6690141   -2.6690141   -1.5139519   0.06387408   -2.6690141    1.1550621   310221 
  478000   0.98971994   -2.6698078   -2.6698078   -1.5139923   0.05219925   -2.6698078    1.1558154   310215 
  479000   0.98896274   -2.6682162   -2.6682162    -1.513259  0.064750984   -2.6682162    1.1549572   310208 
  480000   0.98913578    -2.669223    -2.669223   -1.5140376  0.066079121    -2.669223    1.1551854   310201 
  481000   0.98750443   -2.6683544   -2.6683544   -1.5150519  0.071628554   -2.6683544    1.1533025   310195 
  482000   0.98950236   -2.6695661   -2.6695661   -1.5139042  0.066929766   -2.6695661    1.1556619   310188 
  483000   0.98918742   -2.6688986   -2.6688986   -1.5135785  0.060559921   -2.6688986    1.1553202   310181 
  484000   0.98772856   -2.6681506   -2.6681506    -1.514512   0.06054796   -2.6681506    1.1536386   310175 
  485000   0.98810093   -2.6685748   -2.6685748   -1.5144752  0.058140408   -2.6685748    1.1540996   310168 
  486000   0.98902334   -2.6690867   -2.6690867   -1.5138836   0.06445598   -2.6690867     1.155203   310161 
  487000   0.98736568   -2.6685646   -2.6685646   -1.5152755  0.060042997   -2.6685646    1.1532891   310155 
  488000   0.98870346   -2.6698463   -2.6698463   -1.5149685  0.059020464   -2.6698463    1.1548778   310148 
  489000   0.98986603    -2.670058    -2.670058   -1.5137962  0.055602478    -2.670058    1.1562619   310141 
  490000   0.98693812   -2.6671386   -2.6671386   -1.5142745  0.080082508   -2.6671386    1.1528641   310135 
  491000    0.9870109    -2.667831    -2.667831   -1.5148558  0.078402239    -2.667831    1.1529751   310128 
  492000    0.9881309   -2.6693234   -2.6693234   -1.5150139  0.055950206   -2.6693234    1.1543095   310121 
  493000   0.98648909   -2.6691095   -2.6691095   -1.5166956  0.054478453   -2.6691095    1.1524139   310115 
  494000   0.98931165   -2.6713123   -2.6713123   -1.5155751  0.062202019   -2.6713123    1.1557373   310108 
  495000   0.98771435   -2.6704707   -2.6704707   -1.5165734  0.082140069   -2.6704707    1.1538973   310101 
  496000   0.98931686   -2.6705124   -2.6705124   -1.5147206  0.062341084   -2.6705124    1.1557918   310095 
  497000   0.98754238   -2.6689594   -2.6689594   -1.5152147  0.076018531   -2.6689594    1.1537448   310088 
  498000   0.98740844   -2.6689579   -2.6689579   -1.5153435  0.071996858   -2.6689579    1.1536143   310081 
  499000   0.98711287   -2.6696897   -2.6696897   -1.5163984  0.063543522   -2.6696897    1.1532913   310075 
  500000   0.98732858   -2.6701348   -2.6701348   -1.5165654    0.0587785   -2.6701348    1.1535694   310068 
  501000   0.98754645   -2.6703816   -2.6703816   -1.5165316   0.07853136   -2.6703816      1.15385   310061 
  502000   0.98823665   -2.6703415   -2.6703415   -1.5156628  0.063492616   -2.6703415    1.1546788   310055 
  503000   0.98928126   -2.6724338   -2.6724338   -1.5165084  0.061042862   -2.6724338    1.1559254   310048 
  504000   0.98848233   -2.6722882   -2.6722882   -1.5172702  0.055368839   -2.6722882     1.155018   310041 
  505000   0.98941459   -2.6722408   -2.6722408   -1.5161112  0.056566677   -2.6722408    1.1561297   310035 
  506000   0.98903587    -2.670104    -2.670104   -1.5143908  0.057312402    -2.670104    1.1557132   310028 
  507000   0.98834465   -2.6712506   -2.6712506    -1.516319  0.068231251   -2.6712506    1.1549316   310021 
  508000   0.98667482   -2.6713939   -2.6713939   -1.5183913  0.059515115   -2.6713939    1.1530026   310015 
  509000   0.98711812   -2.6706045   -2.6706045   -1.5170578  0.072894952   -2.6706045    1.1535467   310008 
  510000   0.98837251    -2.672077    -2.672077   -1.5170383  0.059678527    -2.672077    1.1550387   310001 
  511000   0.98701963   -2.6701899   -2.6701899   -1.5167099  0.065460878   -2.6701899      1.15348   309995 
  512000   0.98896531   -2.6718503   -2.6718503   -1.5160703  0.065063085   -2.6718503    1.1557799   309988 
  513000   0.98772281   -2.6713977   -2.6713977   -1.5170438   0.06298861   -2.6713977    1.1543539   309981 
  514000   0.98561372   -2.6697344   -2.6697344   -1.5178231  0.058312666   -2.6697344    1.1519113   309975 
  515000   0.98866483   -2.6719397   -2.6719397   -1.5164364  0.067138662   -2.6719397    1.1555033   309968 
  516000   0.98791699    -2.669023    -2.669023   -1.5143677  0.061061475    -2.669023    1.1546553   309961 
  517000    0.9891554    -2.671042    -2.671042   -1.5149169  0.067237553    -2.671042    1.1561251   309955 
  518000   0.98821762   -2.6693663   -2.6693663   -1.5143111  0.059579829   -2.6693663    1.1550552   309948 
  519000   0.98857722   -2.6717271   -2.6717271   -1.5162255  0.070110337   -2.6717271    1.1555016   309941 
  520000   0.98751004   -2.6705129   -2.6705129   -1.5162364  0.064330643   -2.6705129    1.1542765   309935 
  521000   0.98655899   -2.6710715   -2.6710715   -1.5178806  0.062342308   -2.6710715    1.1531909   309928 
  522000   0.98749924   -2.6712849   -2.6712849   -1.5169689  0.066109829   -2.6712849     1.154316   309921 
  523000   0.98628791   -2.6709466   -2.6709466   -1.5180242  0.072987816   -2.6709466    1.1529224   309915 
  524000   0.98425418   -2.6679245   -2.6679245   -1.5173534  0.063992314   -2.6679245    1.1505711   309908 
  525000   0.98442382   -2.6691426   -2.6691426   -1.5183472  0.072992768   -2.6691426    1.1507954   309901 
  526000   0.98590872   -2.6716896   -2.6716896   -1.5191361  0.054397353   -2.6716896    1.1525535   309895 
  527000   0.98560426   -2.6711215   -2.6711215   -1.5188979  0.067522846   -2.6711215    1.1522236   309888 
  528000   0.98361571   -2.6673996   -2.6673996   -1.5174748  0.066440149   -2.6673996    1.1499249   309881 
  529000   0.98561278   -2.6698761   -2.6698761   -1.5175942   0.05875017   -2.6698761    1.1522819   309875 
  530000   0.98490292   -2.6696207   -2.6696207   -1.5181427  0.071629211   -2.6696207     1.151478   309868 
  531000   0.98568554   -2.6693194   -2.6693194   -1.5169003  0.063445442   -2.6693194    1.1524191   309861 
  532000   0.98546686   -2.6691531   -2.6691531   -1.5169674  0.061513138   -2.6691531    1.1521857   309855 
  533000   0.98413924   -2.6662169   -2.6662169   -1.5155575  0.051578182   -2.6662169    1.1506595   309848 
  534000   0.98623699    -2.669586    -2.669586   -1.5164477  0.058135053    -2.669586    1.1531382   309841 
  535000   0.98672815   -2.6686797   -2.6686797   -1.5149449  0.050000922   -2.6686797    1.1537348   309835 
  536000   0.98681791   -2.6687781   -2.6687781   -1.5149122  0.067168237   -2.6687781    1.1538659   309828 
  537000   0.98722374   -2.6687478   -2.6687478   -1.5143813  0.068031121   -2.6687478    1.1543665   309821 
  538000   0.98693069   -2.6689245   -2.6689245   -1.5148783  0.065945928   -2.6689245    1.1540462   309815 
  539000   0.98680383   -2.6685534   -2.6685534   -1.5146295  0.063990792   -2.6685534    1.1539239   309808 
  540000   0.98724841   -2.6686644   -2.6686644   -1.5141945  0.060764696   -2.6686644    1.1544698   309801 
  541000    0.9875993   -2.6706872   -2.6706872   -1.5157847  0.068564982   -2.6706872    1.1549025   309795 
  542000    0.9868294   -2.6704388   -2.6704388   -1.5164105   0.05331734   -2.6704388    1.1540283   309788 
  543000   0.98651822   -2.6702037   -2.6702037   -1.5165133  0.060511355   -2.6702037    1.1536905   309781 
  544000    0.9860184   -2.6694547   -2.6694547   -1.5163264  0.062934563   -2.6694547    1.1531283   309775 
  545000    0.9891144   -2.6722403   -2.6722403   -1.5154652  0.061114147   -2.6722403    1.1567751   309768 
  546000   0.98627992   -2.6691189   -2.6691189   -1.5156326  0.061082353   -2.6691189    1.1534862   309761 
  547000   0.98735846   -2.6700558   -2.6700558   -1.5152858  0.067753742   -2.6700558      1.15477   309755 
  548000   0.98521313   -2.6677318   -2.6677318   -1.5154449  0.062000217   -2.6677318     1.152287   309748 
  549000   0.98724891   -2.6709425   -2.6709425   -1.5162485  0.059069882   -2.6709425    1.1546941   309741 
  550000    0.9848777   -2.6690079   -2.6690079    -1.517065  0.065961737   -2.6690079     1.151943   309735 
  551000   0.98477871   -2.6683116   -2.6683116   -1.5164584  0.052933029   -2.6683116    1.1518532   309728 
  552000   0.98534212   -2.6684575   -2.6684575   -1.5159192  0.065913551   -2.6684575    1.1525383   309721 
  553000   0.98507523   -2.6681308   -2.6681308   -1.5158824  0.062271675   -2.6681308    1.1522484   309715 
  554000   0.98578666   -2.6682838   -2.6682838   -1.5151771  0.062866939   -2.6682838    1.1531067   309708 
  555000   0.98623825   -2.6687625   -2.6687625   -1.5151015  0.065464249   -2.6687625     1.153661   309701 
  556000   0.98771912    -2.669926    -2.669926   -1.5145104  0.072590479    -2.669926    1.1554156   309695 
  557000   0.98912654   -2.6733448   -2.6733448   -1.5162566  0.057110065   -2.6733448    1.1570881   309688 
  558000   0.98704436   -2.6707236   -2.6707236   -1.5160451  0.058200471   -2.6707236    1.1546785   309681 
  559000    0.9855444   -2.6676458   -2.6676458   -1.5146996  0.072545784   -2.6676458    1.1529461   309675 
  560000   0.98628775   -2.6682911   -2.6682911   -1.5144493  0.068219942   -2.6682911    1.1538418   309668 
  561000   0.98490082   -2.6678018   -2.6678018   -1.5155565   0.05472558   -2.6678018    1.1522453   309661 
  562000   0.98567879   -2.6694721   -2.6694721   -1.5162942   0.05744163   -2.6694721    1.1531778   309655 
  563000   0.98603277   -2.6699252   -2.6699252   -1.5163072  0.066081072   -2.6699252     1.153618   309648 
  564000   0.98726182   -2.6714857   -2.6714857   -1.5164037  0.064463766   -2.6714857    1.1550821   309641 
  565000    0.9862277   -2.6703685   -2.6703685    -1.516474  0.062921495   -2.6703685    1.1538945   309635 
  566000   0.98733248   -2.6704483   -2.6704483    -1.515235  0.059302391   -2.6704483    1.1552133   309628 
  567000   0.98676803   -2.6699876   -2.6699876   -1.5154087  0.065296052   -2.6699876    1.1545789   309621 
  568000   0.98759478   -2.6707641   -2.6707641   -1.5151955  0.056756487   -2.6707641    1.1555687   309615 
  569000   0.98490269   -2.6695756   -2.6695756   -1.5171309  0.065773496   -2.6695756    1.1524448   309608 
  570000   0.98267257   -2.6657442   -2.6657442   -1.5158829   0.06476073   -2.6657442    1.1498613   309601 
  571000   0.98432568   -2.6677572   -2.6677572   -1.5159392  0.062616904   -2.6677572     1.151818   309595 
  572000   0.98723279   -2.6704487   -2.6704487   -1.5152029  0.066466893   -2.6704487    1.1552458   309588 
  573000   0.98502868   -2.6666282   -2.6666282   -1.5139356  0.074483344   -2.6666282    1.1526927   309581 
  574000   0.98488892   -2.6675108   -2.6675108   -1.5149593  0.063861629   -2.6675108    1.1525515   309575 
  575000   0.98575661   -2.6677132   -2.6677132   -1.5141202  0.074208186   -2.6677132     1.153593   309568 
  576000    0.9864209   -2.6674655   -2.6674655    -1.513069   0.06545101   -2.6674655    1.1543965   309561 
  577000   0.98605063   -2.6681322   -2.6681322   -1.5141466   0.06315325   -2.6681322    1.1539855   309555 
  578000   0.98637225   -2.6676142   -2.6676142   -1.5132261  0.059492334   -2.6676142     1.154388   309548 
  579000   0.98598772   -2.6672187   -2.6672187   -1.5132546  0.063783632   -2.6672187    1.1539641   309541 
  580000   0.98601126   -2.6674733   -2.6674733   -1.5134593  0.056808366   -2.6674733     1.154014   309535 
  581000   0.98595979   -2.6672359   -2.6672359    -1.513256  0.057387081   -2.6672359    1.1539799   309528 
  582000   0.98534481   -2.6662186   -2.6662186   -1.5129324  0.060955587   -2.6662186    1.1532862   309521 
  583000   0.98545868   -2.6673189   -2.6673189   -1.5138771  0.060320626   -2.6673189    1.1534418   309515 
  584000   0.98599577   -2.6682195   -2.6682195    -1.514123   0.05516096   -2.6682195    1.1540965   309508 
  585000    0.9842192   -2.6667693   -2.6667693   -1.5147261  0.064279338   -2.6667693    1.1520431   309501 
  586000   0.98530936   -2.6657083   -2.6657083   -1.5123668  0.078589934   -2.6657083    1.1533415   309495 
  587000   0.98522864    -2.664462    -2.664462   -1.5111888  0.074715777    -2.664462    1.1532731   309488 
  588000   0.98636449   -2.6671752   -2.6671752   -1.5125464  0.067761085   -2.6671752    1.1546288   309481 
  589000    0.9871356   -2.6692275   -2.6692275   -1.5136736    0.0683754   -2.6692275    1.1555539   309475 
  590000   0.98506256   -2.6668584   -2.6668584   -1.5137052  0.059130945   -2.6668584    1.1531533   309468 
  591000   0.98361115   -2.6660955   -2.6660955   -1.5146153  0.053863763   -2.6660955    1.1514802   309461 
  592000    0.9810196   -2.6653938   -2.6653938   -1.5169252  0.062034052   -2.6653938    1.1484686   309455 
  593000   0.98311383   -2.6669429   -2.6669429   -1.5159965  0.053075739   -2.6669429    1.1509464   309448 
  594000   0.98342735   -2.6666106   -2.6666106   -1.5152712  0.076737083   -2.6666106    1.1513395   309441 
  595000   0.98277681   -2.6667334   -2.6667334   -1.5161332  0.057331743   -2.6667334    1.1506002   309435 
  596000   0.98399269   -2.6683132   -2.6683132   -1.5162634  0.057965935   -2.6683132    1.1520497   309428 
  597000   0.98415842   -2.6674859   -2.6674859   -1.5152161  0.063167535   -2.6674859    1.1522698   309421 
  598000    0.9845497    -2.668414    -2.668414   -1.5156637  0.053496466    -2.668414    1.1527503   309415 
  599000   0.98403472   -2.6676115   -2.6676115    -1.515438  0.056011447   -2.6676115    1.1521734   309408 
  600000    0.9858535    -2.669704    -2.669704   -1.5153749  0.074703582    -2.669704    1.1543291   309401 
  601000   0.98682347   -2.6711246   -2.6711246   -1.5156374  0.059399148   -2.6711246    1.1554872   309395 
  602000   0.98603636    -2.669606    -2.669606   -1.5150143  0.060483136    -2.669606    1.1545917   309388 
  603000   0.98600331    -2.669584    -2.669584   -1.5150049  0.062517934    -2.669584    1.1545791   309381 
  604000   0.98637603   -2.6701787   -2.6701787   -1.5151408  0.060461569   -2.6701787     1.155038   309375 
  605000   0.98496499   -2.6691659   -2.6691659   -1.5157541  0.072080173   -2.6691659    1.1534117   309368 
  606000   0.98755168   -2.6715567   -2.6715567   -1.5150897   0.06462594   -2.6715567     1.156467   309361 
  607000   0.98719337   -2.6724402   -2.6724402   -1.5163704  0.069893691   -2.6724402    1.1560698   309355 
  608000   0.98486899   -2.6696914   -2.6696914   -1.5163176   0.05685992   -2.6696914    1.1533739   309348 
  609000   0.98529915   -2.6699054   -2.6699054   -1.5160017  0.063782361   -2.6699054    1.1539038   309341 
  610000   0.98295347    -2.668446    -2.668446    -1.517267  0.064774864    -2.668446     1.151179   309335 
  611000   0.98556591   -2.6707939   -2.6707939   -1.5165292   0.06522461   -2.6707939    1.1542647   309328 
  612000   0.98306018   -2.6682683   -2.6682683   -1.5169122  0.070519446   -2.6682683    1.1513561   309321 
  613000   0.98528942   -2.6700326   -2.6700326   -1.5160433   0.06373127   -2.6700326    1.1539894   309315 
  614000   0.98364615   -2.6704358   -2.6704358    -1.518345  0.050021652   -2.6704358    1.1520908   309308 
  615000   0.98316139   -2.6704814   -2.6704814   -1.5189323  0.064974341   -2.6704814    1.1515491   309301 
  616000   0.97985153    -2.667739    -2.667739   -1.5200444  0.053634996    -2.667739    1.1476946   309295 
  617000   0.98322935   -2.6700143   -2.6700143   -1.5183372  0.071881326   -2.6700143    1.1516771   309288 
  618000   0.98390139   -2.6705201   -2.6705201   -1.5180297  0.051832983   -2.6705201    1.1524904   309281 
  619000   0.98225653   -2.6684799   -2.6684799   -1.5178939  0.072112776   -2.6684799     1.150586   309275 
  620000   0.98077743   -2.6672534   -2.6672534    -1.518374  0.067747361   -2.6672534    1.1488794   309268 
  621000   0.98379719    -2.670367    -2.670367   -1.5179242  0.063418988    -2.670367    1.1524428   309261 
  622000   0.98401197   -2.6692673   -2.6692673   -1.5165505  0.058743716   -2.6692673    1.1527168   309255 
  623000    0.9857094   -2.6711425   -2.6711425   -1.5164111  0.060559225   -2.6711425    1.1547314   309248 
  624000   0.98499623   -2.6699427   -2.6699427   -1.5160207   0.06271647   -2.6699427     1.153922   309241 
  625000   0.98416562   -2.6688757   -2.6688757   -1.5159044  0.073932659   -2.6688757    1.1529713   309235 
  626000    0.9860042   -2.6721118   -2.6721118   -1.5169604  0.066222738   -2.6721118    1.1551514   309228 
  627000   0.98674339    -2.671766    -2.671766   -1.5157225   0.07714978    -2.671766    1.1560436   309221 
  628000   0.98575603   -2.6716182   -2.6716182    -1.516709  0.065728065   -2.6716182    1.1549092   309215 
  629000   0.98279426   -2.6680803   -2.6680803    -1.516615  0.065856137   -2.6680803    1.1514653   309208 
  630000   0.98517943   -2.6715078   -2.6715078   -1.5172218  0.057480368   -2.6715078     1.154286   309201 
  631000    0.9839528   -2.6687333   -2.6687333   -1.5158622  0.072058156   -2.6687333    1.1528711   309195 
  632000   0.98349202   -2.6692314   -2.6692314    -1.516874  0.049642073   -2.6692314    1.1523574   309188 
  633000   0.98356722    -2.670767    -2.670767   -1.5182954  0.068025288    -2.670767    1.1524716   309181 
  634000   0.98270603   -2.6695467   -2.6695467   -1.5180619  0.066621476   -2.6695467    1.1514848   309175 
  635000   0.98029325   -2.6678566   -2.6678566    -1.519173  0.063070652   -2.6678566    1.1486837   309168 
  636000    0.9814892   -2.6681663   -2.6681663   -1.5180552  0.058896769   -2.6681663    1.1501111   309161 
  637000   0.98294462   -2.6692151   -2.6692151   -1.5173762  0.069226306   -2.6692151    1.1518389   309155 
  638000   0.98143035     -2.66732     -2.66732   -1.5172295  0.064400118     -2.66732    1.1500905   309148 
  639000   0.98024389    -2.667581    -2.667581   -1.5188548  0.050810848    -2.667581    1.1487261   309141 
  640000    0.9835255   -2.6695075   -2.6695075   -1.5169134  0.066696628   -2.6695075    1.1525941   309135 
  641000   0.98240285    -2.668532    -2.668532   -1.5172274  0.056674563    -2.668532    1.1513046   309128 
  642000   0.98247059   -2.6681573   -2.6681573   -1.5167472  0.062113502   -2.6681573      1.15141   309121 
  643000   0.98419933   -2.6682374   -2.6682374    -1.514779  0.066546795   -2.6682374    1.1534584   309115 
  644000   0.98455083   -2.6700546   -2.6700546    -1.516158  0.055917492   -2.6700546    1.1538965   309108 
  645000   0.98358991   -2.6681988   -2.6681988   -1.5154024  0.051498994   -2.6681988    1.1527964   309101 
  646000   0.98196028   -2.6669594   -2.6669594   -1.5160506  0.064379878   -2.6669594    1.1509088   309095 
  647000   0.98289973   -2.6679419   -2.6679419   -1.5159059  0.063074288   -2.6679419     1.152036   309088 
  648000   0.98354111   -2.6689647   -2.6689647   -1.5161508  0.055942773   -2.6689647    1.1528138   309081 
  649000   0.98537172   -2.6711471   -2.6711471   -1.5161652  0.058581973   -2.6711471    1.1549819   309075 
  650000   0.98389062   -2.6698023   -2.6698023   -1.5165303  0.067939292   -2.6698023     1.153272   309068 
  651000   0.98259817   -2.6694965   -2.6694965   -1.5177134   0.05420515   -2.6694965    1.1517831   309061 
  652000   0.98201061   -2.6688084   -2.6688084   -1.5176916  0.059372057   -2.6688084    1.1511167   309055 
  653000   0.98300236   -2.6698439   -2.6698439   -1.5175385  0.059583127   -2.6698439    1.1523054   309048 
  654000   0.98326473   -2.6709133   -2.6709133   -1.5182742  0.057570321   -2.6709133     1.152639   309041 
  655000   0.98242876   -2.6714569   -2.6714569   -1.5197754  0.049346804   -2.6714569    1.1516814   309035 
  656000   0.98215252   -2.6699494   -2.6699494   -1.5185657  0.057845511   -2.6699494    1.1513837   309028 
  657000   0.98075798   -2.6681978   -2.6681978   -1.5184229   0.05516913   -2.6681978    1.1497749   309021 
  658000   0.98212922   -2.6685497   -2.6685497   -1.5171449  0.044559268   -2.6685497    1.1514048   309015 
  659000   0.98283587   -2.6693678   -2.6693678   -1.5171085  0.064100665   -2.6693678    1.1522594   309008 
  660000    0.9806716   -2.6685757   -2.6685757   -1.5188276  0.065108322   -2.6685757     1.149748   309001 
  661000   0.98188205   -2.6698467   -2.6698467   -1.5186572  0.060371368   -2.6698467    1.1511895   308995 
  662000     0.981716   -2.6699314   -2.6699314   -1.5189104  0.057200084   -2.6699314    1.1510209   308988 
[...]
19832000   0.45209941   -1.9877598   -1.9877598   -1.0838118  0.042188207   -1.9877598   0.90394804   181188 
19833000   0.45168787   -1.9878666   -1.9878666   -1.0847065  0.049756616   -1.9878666    0.9031601   181181 
19834000   0.45140799   -1.9861015   -1.9861015   -1.0834711  0.050399406   -1.9861015   0.90263037   181175 
19835000   0.45112023   -1.9865941   -1.9865941   -1.0845042  0.048201096   -1.9865941   0.90208982   181168 
19836000   0.45138443   -1.9850169   -1.9850169   -1.0823639  0.042994703   -1.9850169   0.90265299   181161 
19837000   0.45028668   -1.9821063   -1.9821063   -1.0816187  0.049125514   -1.9821063   0.90048762   181155 
19838000   0.45145983   -1.9838073   -1.9838073   -1.0809387  0.051216582   -1.9838073   0.90286857   181148 
19839000   0.45207281   -1.9849929   -1.9849929   -1.0808635  0.050664709   -1.9849929    0.9041294   181141 
19840000   0.45263058   -1.9829794   -1.9829794   -1.0777045   0.05151687   -1.9829794    0.9052749   181135 
19841000   0.45181813   -1.9808506   -1.9808506   -1.0771657  0.057345122   -1.9808506    0.9036849   181128 
19842000   0.45070738   -1.9810713   -1.9810713   -1.0795732  0.052393019   -1.9810713   0.90149811   181121 
19843000   0.44992744      -1.9806      -1.9806    -1.080632  0.038312732      -1.9806   0.89996792   181115 
19844000   0.45108933   -1.9847461   -1.9847461   -1.0824193  0.039788373   -1.9847461   0.90232685   181108 
19845000    0.4503283   -1.9820615   -1.9820615   -1.0812221  0.054885394   -1.9820615   0.90083937   181101 
19846000   0.45116498   -1.9851375   -1.9851375   -1.0825945  0.041996491   -1.9851375   0.90254297   181095 
19847000    0.4517319   -1.9834835   -1.9834835   -1.0797715   0.05403686   -1.9834835   0.90371201   181088 
19848000   0.44999102    -1.983271    -1.983271   -1.0830069  0.040139016    -1.983271   0.90026409   181081 
19849000   0.45099088   -1.9842565   -1.9842565   -1.0819622   0.04806281   -1.9842565   0.90229433   181075 
19850000   0.45154667   -1.9852119   -1.9852119   -1.0817707  0.042917136   -1.9852119   0.90344122   181068 
19851000   0.45140468   -1.9846291   -1.9846291   -1.0814371  0.052638555   -1.9846291   0.90319206   181061 
19852000   0.45181339   -1.9861144   -1.9861144   -1.0820746  0.055028819   -1.9861144   0.90403978   181055 
19853000   0.45052472   -1.9843869   -1.9843869   -1.0828907  0.037264015   -1.9843869   0.90149612   181048 
19854000   0.45146084   -1.9872012   -1.9872012   -1.0837969  0.053021957   -1.9872012   0.90340421   181041 
19855000   0.45223634   -1.9896681   -1.9896681    -1.084682  0.045971554   -1.9896681   0.90498604   181035 
19856000   0.45140791   -1.9883492   -1.9883492    -1.084986  0.056634069   -1.9883492   0.90336317   181028 
19857000   0.45097282   -1.9859819   -1.9859819   -1.0834545  0.051696377   -1.9859819   0.90252735   181021 
19858000   0.44905498    -1.983007    -1.983007    -1.084288  0.040711426    -1.983007   0.89871899   181015 
19859000   0.45045343   -1.9867239   -1.9867239   -1.0851713  0.045541612   -1.9867239   0.90155264   181008 
19860000   0.45005228   -1.9847892   -1.9847892   -1.0840046   0.05311167   -1.9847892   0.90078461   181001 
19861000   0.44939124   -1.9830832   -1.9830832   -1.0835918  0.054752206   -1.9830832   0.89949134   180995 
19862000   0.44950885   -1.9851446   -1.9851446    -1.085383  0.040597169   -1.9851446   0.89976155   180988 
19863000   0.44970671   -1.9830902   -1.9830902   -1.0828978  0.049833197   -1.9830902   0.90019241   180981 
19864000   0.45068105   -1.9842348   -1.9842348   -1.0820621  0.052379274   -1.9842348    0.9021727   180975 
19865000   0.45052781   -1.9845761   -1.9845761   -1.0826753  0.048820875   -1.9845761   0.90190081   180968 
19866000   0.44978358   -1.9853544   -1.9853544   -1.0849086  0.046790859   -1.9853544   0.90044579   180961 
19867000   0.44910474   -1.9844237   -1.9844237   -1.0853071  0.045936245   -1.9844237   0.89911659   180955 
19868000   0.44900804   -1.9837784   -1.9837784   -1.0848206  0.039370372   -1.9837784   0.89895779   180948 
19869000   0.44971068   -1.9857237   -1.9857237   -1.0853243   0.05026594   -1.9857237   0.90039937   180941 
19870000   0.44992917   -1.9845607   -1.9845607    -1.083694  0.058074671   -1.9845607    0.9008667   180935 
19871000   0.45030326    -1.988484    -1.988484   -1.0868334  0.057479045    -1.988484   0.90165059   180928 
19872000   0.45075426   -1.9890646   -1.9890646    -1.086476  0.054745658   -1.9890646   0.90258855   180921 
19873000   0.44959494    -1.985206    -1.985206    -1.084909  0.041171214    -1.985206   0.90029699   180915 
19874000    0.4491517   -1.9845763   -1.9845763   -1.0851321   0.04953419   -1.9845763   0.89944423   180908 
19875000   0.45030575   -1.9864062   -1.9864062    -1.084616  0.051967813   -1.9864062   0.90179016   180901 
19876000   0.45134302   -1.9878117   -1.9878117   -1.0839144  0.044825569   -1.9878117   0.90389738   180895 
19877000   0.44911993   -1.9836661   -1.9836661    -1.084186  0.048447192   -1.9836661   0.89948004   180888 
19878000    0.4494867   -1.9837112   -1.9837112   -1.0834617  0.045299235   -1.9837112   0.90024945   180881 
19879000   0.44908278    -1.983827    -1.983827   -1.0843567  0.037979279    -1.983827   0.89947028   180875 
19880000   0.44887674   -1.9824584   -1.9824584    -1.083366  0.045008794   -1.9824584    0.8990924   180868 
19881000   0.44895471   -1.9808681   -1.9808681   -1.0815847  0.051394064   -1.9808681   0.89928338   180861 
19882000   0.45067259   -1.9837101   -1.9837101   -1.0809557  0.045384254   -1.9837101   0.90275435   180855 
19883000   0.45058809   -1.9805853   -1.9805853   -1.0779653  0.050563078   -1.9805853   0.90262002   180848 
19884000   0.45022341   -1.9836711   -1.9836711   -1.0817467  0.045667075   -1.9836711    0.9019244   180841 
19885000   0.45101581   -1.9852461   -1.9852461   -1.0817044  0.043642027   -1.9852461   0.90354177   180835 
19886000   0.44832786   -1.9827199   -1.9827199   -1.0845282  0.046189651   -1.9827199   0.89819164   180828 
19887000   0.44768523   -1.9835567   -1.9835567   -1.0866178   0.05873766   -1.9835567   0.89693891   180821 
19888000   0.44748722   -1.9811724   -1.9811724   -1.0846004  0.046851257   -1.9811724   0.89657194   180815 
19889000   0.44949137    -1.984285    -1.984285   -1.0836628  0.036326803    -1.984285   0.90062227   180808 
19890000   0.44920045   -1.9815697   -1.9815697   -1.0814955  0.041523462   -1.9815697    0.9000742   180801 
19891000   0.44966952   -1.9851993   -1.9851993   -1.0841553  0.054832949   -1.9851993     0.901044   180795 
19892000   0.45000125   -1.9854911   -1.9854911   -1.0837475  0.040160214   -1.9854911   0.90174364   180788 
19893000   0.44778368   -1.9832008   -1.9832008   -1.0858661  0.046885506   -1.9832008   0.89733465   180781 
19894000   0.44678584   -1.9839279   -1.9839279   -1.0885631  0.061107511   -1.9839279   0.89536476   180775 
19895000   0.44971862    -1.986376    -1.986376    -1.085099  0.043113254    -1.986376   0.90127698   180768 
19896000   0.44988937   -1.9864623   -1.9864623   -1.0848082  0.048317954   -1.9864623    0.9016541   180761 
19897000   0.44858634   -1.9858813   -1.9858813   -1.0868089  0.047952819   -1.9858813   0.89907244   180755 
19898000   0.44919286   -1.9894361   -1.9894361   -1.0891132  0.057542797   -1.9894361   0.90032293   180748 
19899000   0.44822146   -1.9871743   -1.9871743   -1.0887635  0.041855942   -1.9871743   0.89841073   180741 
19900000   0.44725265   -1.9849529   -1.9849529   -1.0884543  0.041942692   -1.9849529   0.89649862   180735 
19901000   0.44776971   -1.9874471   -1.9874471   -1.0898773  0.059104109   -1.9874471    0.8975698   180728 
19902000   0.44916694   -1.9883572   -1.9883572   -1.0879517  0.048128374   -1.9883572   0.90040548   180721 
19903000   0.44771163   -1.9852501   -1.9852501   -1.0877322  0.059545438   -1.9852501   0.89751793   180715 
19904000    0.4491421   -1.9852939   -1.9852939   -1.0848734  0.044690467   -1.9852939   0.90042045   180708 
19905000   0.45002945   -1.9871456   -1.9871456   -1.0849112  0.054327927   -1.9871456   0.90223432   180701 
19906000   0.44940924   -1.9838604   -1.9838604   -1.0828396  0.052240939   -1.9838604   0.90102083   180695 
19907000   0.44891571   -1.9857257   -1.9857257   -1.0856595    0.0477764   -1.9857257   0.90006622   180688 
19908000   0.44845198   -1.9835334   -1.9835334   -1.0843621  0.040303284   -1.9835334   0.89917127   180681 
19909000   0.44756561   -1.9839798   -1.9839798   -1.0865559  0.040784776   -1.9839798   0.89742386   180675 
19910000   0.44620416   -1.9813346   -1.9813346    -1.086606  0.039138643   -1.9813346   0.89472865   180668 
19911000   0.44732945   -1.9805741   -1.9805741   -1.0835542  0.043093618   -1.9805741   0.89701984   180661 
19912000   0.44898196   -1.9831911   -1.9831911   -1.0828276   0.04207369   -1.9831911   0.90036349   180655 
19913000   0.44956236   -1.9832166   -1.9832166   -1.0816543  0.042647077   -1.9832166   0.90156232   180648 
19914000   0.45130902   -1.9854233   -1.9854233   -1.0803232  0.047782449   -1.9854233   0.90510018   180641 
19915000   0.44997793   -1.9835256   -1.9835256    -1.081065  0.039028786   -1.9835256   0.90246065   180635 
19916000   0.44816969   -1.9804558   -1.9804558   -1.0815869  0.044882459   -1.9804558   0.89886894   180628 
19917000   0.44870501   -1.9811147   -1.9811147   -1.0811372  0.043602658   -1.9811147   0.89997749   180621 
19918000   0.44873439   -1.9823733   -1.9823733    -1.082307  0.053512559   -1.9823733    0.9000663   180615 
19919000   0.44758616   -1.9803635   -1.9803635   -1.0825655  0.046105694   -1.9803635     0.897798   180608 
19920000   0.44870665   -1.9822036   -1.9822036   -1.0821231  0.050729442   -1.9822036   0.90008044   180601 
19921000    0.4494166   -1.9830682   -1.9830682   -1.0815337  0.053344367   -1.9830682   0.90153449   180595 
19922000   0.44896738   -1.9807081   -1.9807081   -1.0800399  0.049294786   -1.9807081   0.90066826   180588 
19923000   0.44743517   -1.9776655   -1.9776655   -1.0800361  0.055108212   -1.9776655   0.89762933   180581 
19924000   0.44688064   -1.9798069   -1.9798069   -1.0832603  0.050305342   -1.9798069   0.89654662   180575 
19925000    0.4474595   -1.9789776   -1.9789776   -1.0812349  0.041494452   -1.9789776   0.89774276   180568 
19926000   0.44759616   -1.9795898   -1.9795898    -1.081538  0.051414035   -1.9795898   0.89805175   180561 
19927000   0.44997343   -1.9817193   -1.9817193   -1.0788678  0.053766386   -1.9817193   0.90285148   180555 
19928000   0.45033452   -1.9814155   -1.9814155   -1.0778045  0.050815395   -1.9814155   0.90361103   180548 
19929000   0.44942075   -1.9781471   -1.9781471   -1.0763346  0.051111529   -1.9781471   0.90181249   180541 
19930000    0.4476132   -1.9757316   -1.9757316   -1.0775163  0.040699878   -1.9757316   0.89821527   180535 
19931000    0.4484512   -1.9773308   -1.9773308    -1.077399  0.041601707   -1.9773308   0.89993177   180528 
19932000   0.44764484   -1.9775908   -1.9775908   -1.0792423  0.043521564   -1.9775908   0.89834844   180521 
19933000   0.44945572   -1.9808954   -1.9808954   -1.0788828  0.035741389   -1.9808954   0.90201255   180515 
19934000   0.44841101   -1.9780887   -1.9780887   -1.0781379  0.039731852   -1.9780887   0.89995081   180508 
19935000   0.44807014    -1.977581    -1.977581   -1.0782794  0.049436837    -1.977581   0.89930159   180501 
19936000   0.44755251    -1.977619    -1.977619   -1.0793264  0.048081093    -1.977619   0.89829253   180495 
19937000   0.44776688   -1.9760279   -1.9760279   -1.0772703  0.050953076   -1.9760279   0.89875765   180488 
19938000   0.44789492   -1.9744368   -1.9744368   -1.0753873  0.040544472   -1.9744368   0.89904953   180481 
19939000    0.4485571   -1.9748516   -1.9748516   -1.0744429  0.036387542   -1.9748516   0.90040863   180475 
19940000   0.44795909   -1.9739931   -1.9739931     -1.07475  0.048712575   -1.9739931    0.8992431   180468 
19941000   0.44943816   -1.9757637   -1.9757637   -1.0735165  0.047998626   -1.9757637   0.90224721   180461 
19942000   0.44860393   -1.9739947   -1.9739947   -1.0733923  0.045047776   -1.9739947   0.90060243   180455 
19943000   0.44799944   -1.9729222   -1.9729222   -1.0734984  0.051510456   -1.9729222   0.89942378   180448 
19944000   0.44801881   -1.9738836   -1.9738836    -1.074386  0.049560276   -1.9738836   0.89949756   180441 
19945000   0.44917414    -1.973212    -1.973212   -1.0713649  0.053795835    -1.973212   0.90184713   180435 
19946000   0.44870485   -1.9745514   -1.9745514   -1.0736116  0.048939532   -1.9745514   0.90093984   180428 
19947000   0.44843183   -1.9760716   -1.9760716    -1.075645  0.043746898   -1.9760716   0.90042658   180421 
19948000   0.44776951   -1.9753947   -1.9753947   -1.0762681  0.045882801   -1.9753947   0.89912658   180415 
19949000   0.44648535   -1.9773733   -1.9773733   -1.0807905  0.045505115   -1.9773733   0.89658276   180408 
19950000   0.44727473   -1.9755156   -1.9755156   -1.0773128  0.045113968   -1.9755156   0.89820277   180401 
19951000   0.44854975    -1.977318    -1.977318   -1.0765248  0.045382412    -1.977318   0.90079318   180395 
19952000   0.44808524   -1.9782701   -1.9782701   -1.0783749  0.051013209   -1.9782701   0.89989524   180388 
19953000   0.44866919   -1.9814441   -1.9814441   -1.0803411  0.048456829   -1.9814441   0.90110298   180381 
19954000     0.447105   -1.9793539   -1.9793539   -1.0813626  0.054940941   -1.9793539   0.89799134   180375 
19955000   0.44733918   -1.9772488   -1.9772488   -1.0787523  0.047813546   -1.9772488   0.89849655   180368 
19956000   0.44797245   -1.9776723   -1.9776723   -1.0778689  0.055134885   -1.9776723   0.89980341   180361 
19957000   0.44893692   -1.9811671   -1.9811671   -1.0793965  0.051952016   -1.9811671   0.90177066   180355 
19958000   0.44941837   -1.9818158   -1.9818158   -1.0790431  0.048090277   -1.9818158   0.90277278   180348 
19959000   0.44691267   -1.9780335   -1.9780335   -1.0802592  0.054905033   -1.9780335   0.89777428   180341 
19960000   0.44816664   -1.9802875   -1.9802875   -1.0799642  0.050505137   -1.9802875   0.90032325   180335 
19961000    0.4470528   -1.9794321   -1.9794321   -1.0813116  0.037086441   -1.9794321   0.89812052   180328 
19962000    0.4483025    -1.981199    -1.981199   -1.0805329  0.049654189    -1.981199    0.9006661   180321 
19963000   0.44712629   -1.9775461   -1.9775461   -1.0792132  0.043836184   -1.9775461   0.89833292   180315 
19964000   0.44759804   -1.9795893   -1.9795893   -1.0802737  0.049631429   -1.9795893   0.89931563   180308 
19965000   0.44774475   -1.9771715   -1.9771715   -1.0775262     0.051739   -1.9771715   0.89964534   180301 
19966000   0.44714803   -1.9778087   -1.9778087   -1.0793324  0.042700186   -1.9778087   0.89847626   180295 
19967000   0.44823711   -1.9794903   -1.9794903   -1.0787907  0.049186224   -1.9794903   0.90069956   180288 
19968000   0.44756513   -1.9800478   -1.9800478   -1.0806636  0.053114414   -1.9800478    0.8993842   180281 
19969000   0.44714915   -1.9800619   -1.9800619   -1.0814837  0.042718383   -1.9800619   0.89857818   180275 
19970000   0.44644929   -1.9792605   -1.9792605   -1.0820539   0.04263887   -1.9792605    0.8972066   180268 
19971000   0.44512369   -1.9761826   -1.9761826   -1.0816053   0.04145782   -1.9761826   0.89457734   180261 
19972000   0.44601373   -1.9775317   -1.9775317   -1.0811358  0.043694473   -1.9775317   0.89639592   180255 
19973000   0.44633734   -1.9786635   -1.9786635   -1.0815824  0.062350547   -1.9786635   0.89708114   180248 
19974000    0.4448823   -1.9773879   -1.9773879   -1.0831965  0.047456329   -1.9773879   0.89419143   180241 
19975000   0.44574291   -1.9772283   -1.9772283   -1.0812773  0.039769057   -1.9772283   0.89595104   180235 
19976000   0.44639778   -1.9774042   -1.9774042    -1.080102  0.048989886   -1.9774042   0.89730219   180228 
19977000   0.44675151   -1.9805298   -1.9805298   -1.0824817  0.044673613   -1.9805298    0.8980481   180221 
19978000   0.44631051   -1.9795571   -1.9795571   -1.0823657   0.04729599   -1.9795571   0.89719148   180215 
19979000   0.44554151   -1.9800807   -1.9800807   -1.0844003  0.045622885   -1.9800807   0.89568041   180208 
19980000   0.44682635   -1.9812004   -1.9812004   -1.0829022  0.043870313   -1.9812004   0.89829823   180201 
19981000   0.44644675   -1.9817524   -1.9817524   -1.0841874  0.048388305   -1.9817524   0.89756497   180195 
19982000   0.44799082   -1.9852231   -1.9852231   -1.0845189  0.047891806   -1.9852231   0.90070425   180188 
19983000   0.44733921   -1.9845876   -1.9845876   -1.0851584  0.053250411   -1.9845876   0.89942911   180181 
19984000   0.44544217   -1.9828054   -1.9828054   -1.0871607  0.054470943   -1.9828054    0.8956447   180175 
19985000   0.44589683   -1.9838776   -1.9838776   -1.0872839  0.043685601   -1.9838776   0.89659371   180168 
19986000   0.44697232   -1.9868654   -1.9868654   -1.0880742  0.051605605   -1.9868654    0.8987912   180161 
19987000   0.44641848   -1.9854775   -1.9854775   -1.0877701  0.048502656   -1.9854775   0.89770741   180155 
19988000   0.44641485   -1.9848083   -1.9848083   -1.0870733  0.045248209   -1.9848083   0.89773499   180148 
19989000   0.44695682   -1.9853182   -1.9853182   -1.0864584  0.044070732   -1.9853182   0.89885981   180141 
19990000   0.44763627   -1.9869155   -1.9869155   -1.0866592  0.047279218   -1.9869155   0.90025621   180135 
19991000   0.44883942   -1.9879996   -1.9879996   -1.0852886  0.040214006   -1.9879996   0.90271098   180128 
19992000   0.44802565   -1.9853473   -1.9853473    -1.084238  0.054127313   -1.9853473   0.90110934   180121 
19993000   0.44689741   -1.9847243   -1.9847243   -1.0858542  0.038283614   -1.9847243   0.89887006   180115 
19994000   0.44731781   -1.9842972   -1.9842972   -1.0845466  0.053153761   -1.9842972   0.89975062   180108 
19995000   0.44626864   -1.9817481   -1.9817481    -1.084073  0.057479319   -1.9817481   0.89767516   180101 
19996000   0.44627941   -1.9828871   -1.9828871   -1.0851603  0.049465129   -1.9828871   0.89772673   180095 
19997000   0.44622576   -1.9819993   -1.9819993   -1.0843456  0.059728467   -1.9819993    0.8976537   180088 
19998000   0.44726769   -1.9813245   -1.9813245   -1.0815398  0.059657763   -1.9813245   0.89978468   180081 
19999000    0.4463673   -1.9783264   -1.9783264   -1.0803231  0.053425641   -1.9783264   0.89800327   180075 
20000000   0.44700498   -1.9790139   -1.9790139   -1.0796928  0.046120844   -1.9790139    0.8993211   180068 
Loop time of 22431.7 on 288 procs for 20000000 steps with 180068 atoms

Performance: 385168.938 tau/day, 891.595 timesteps/s
92.2% CPU use with 288 MPI tasks x 1 OpenMP threads

MPI task timing breakdown:
Section |  min time  |  avg time  |  max time  |%varavg|  %CPU | %total
-----------------------------------------------------------------------
Pair    | 668.79     | 3600.4     | 5081.7     |1578.6 |  93.9 | 16.05
Bond    | 12.633     | 13.518     | 15.098     |   9.0 | 100.0 |  0.06
Neigh   | 877.15     | 3282.7     | 4236.1     |1260.9 |  97.7 | 14.63
Comm    | 5300.4     | 9228.8     | 11748      |1386.6 |  91.4 | 41.14
Output  | 1889.6     | 1890.9     | 1894.8     |   2.7 |  86.4 |  8.43
Modify  | 3215.5     | 4136.5     | 8038.6     |1720.7 |  91.6 | 18.44
Other   |            | 279        |            |       |       |  1.24

Nlocal:        625.236 ave         927 max         151 min
Histogram: 1 1 4 1 28 90 120 29 11 3
Nghost:        4031.30 ave        6817 max         580 min
Histogram: 32 16 10 20 25 28 46 58 34 19
Neighs:        10178.1 ave       19468 max        1295 min
Histogram: 37 4 9 39 60 45 34 29 20 11

Total # of neighbors = 2931291
Ave neighs/atom = 16.278800
Ave special neighs/atom = 0.0000000
Neighbor list builds = 2000000
Dangerous builds = 1853333

Total wall time: 6:13:56
