LAMMPS (24 Dec 2020)
OMP_NUM_THREADS environment is not set. Defaulting to 1 thread. (src/comm.cpp:94)
  using 1 OpenMP thread(s) per MPI task
#Read the equilibrated lj fluid and add nanocubes

units           lj
atom_style      full
#atom_modify     map array first cubes
dimension       3
boundary        p p f
pair_style      lj/cut/opt 2.5

variable        sigma           equal 1.0
variable        epsilon         equal 1.0
read_restart	restart.dat.10000000
Reading restart file ...
  restart file = 24 Dec 2020, LAMMPS = 24 Dec 2020
  restoring atom style full from restart
  orthogonal box = (0.0000000 0.0000000 0.0000000) to (120.00000 120.00000 240.00000)
  6 by 8 by 16 MPI processor grid
  restoring pair style lj/cut/opt from restart
  1646021 atoms
Finding 1-2 1-3 1-4 neighbors ...
  special bond factors lj:    0        0        0       
  special bond factors coul:  0        0        0       
     0 = max # of 1-2 neighbors
     0 = max # of 1-3 neighbors
     0 = max # of 1-4 neighbors
     1 = max # of special neighbors
  special bonds CPU = 7.292 seconds
  read_restart CPU = 9.015 seconds

group		solvent type 1
1283911 atoms in group solvent
group 		hull  type 2
136220 atoms in group hull
group 		dummy type 3
225890 atoms in group dummy

neighbor      0.4 bin
neigh_modify  exclude molecule/intra cubes

pair_modify   shift yes

pair_coeff    1 1 1.0 1.0 #solvent
pair_coeff    2 2 1.0 1.0 1.12 #np
pair_coeff    3 3 0.0 0.0 0.0 #dummy
pair_coeff    2 3 0.0 0.0 0.0 #np dummy
pair_coeff    1 2 ${sol} 1.0  #np solvent
pair_coeff    1 2 0.65 1.0  
pair_coeff    1 3 0.0 0.0 0.0 #dummy solvent


comm_modify   mode multi cutoff/multi 1 2.5 cutoff/multi 2 2.5 cutoff/multi 3 5.51

reset_timestep 	0

balance 	1.05 shift z 10 1.05
Balancing ...
Unused restart file global fix info:
  fix style: STORE, fix ID: msd_COMPUTE_STORE
Unused restart file peratom fix info:
  fix style: STORE, fix ID: bin1_COMPUTE_STORE
  fix style: STORE, fix ID: bin3_COMPUTE_STORE
Neighbor list info ...
  update every 1 steps, delay 10 steps, check yes
  max neighbors/atom: 2000, page size: 100000
  master list distance cutoff = 2.9
  ghost atom cutoff = 5.51
  binsize = 1.45, bins = 83 83 166
  1 neighbor lists, perpetual/occasional/extra = 1 0 0
  (1) pair lj/cut/opt, perpetual
      attributes: half, newton on
      pair build: half/bin/newton
      stencil: half/bin/3d/newton
      bin: standard
 rebalancing time: 0.047 seconds
  iteration count = 3
  initial/final maximal load/proc = 3136.0000 3976.0000
  initial/final imbalance factor  = 1.4631940 1.8551209
  x cuts: 0.0000000 0.16666667 0.33333333 0.50000000 0.66666667 0.83333333 1.0000000
  y cuts: 0.0000000 0.12500000 0.25000000 0.37500000 0.50000000 0.62500000 0.75000000 0.87500000 1.0000000
  z cuts: 0.0000000 0.054687500 0.10156250 0.14843750 0.19531250 0.23437500 0.29687500 0.32812500 0.39062500 0.45312500 0.50781250 0.52343750 0.58593750 0.64843750 0.71093750 0.71875000 1.0000000

####################### WALLS ###########################

variable       epsilonWall equal 2*${epsilon}
variable       epsilonWall equal 2*1
variable       repulsive   equal   0.7147*${sigma}
variable       repulsive   equal   0.7147*1
variable       full	   equal   3*${sigma}
variable       full	   equal   3*1
region         lowWall block EDGE EDGE EDGE EDGE EDGE 2

fix            topWall all wall/lj93 zhi EDGE 	       ${epsilonWall} ${sigma} ${repulsive} units box
fix            topWall all wall/lj93 zhi EDGE 	       2 ${sigma} ${repulsive} units box
fix            topWall all wall/lj93 zhi EDGE 	       2 1 ${repulsive} units box
fix            topWall all wall/lj93 zhi EDGE 	       2 1 0.7147 units box
fix            lowSol solvent wall/lj93 zlo EDGE                ${epsilonWall} ${sigma} ${full} units box
fix            lowSol solvent wall/lj93 zlo EDGE                2 ${sigma} ${full} units box
fix            lowSol solvent wall/lj93 zlo EDGE                2 1 ${full} units box
fix            lowSol solvent wall/lj93 zlo EDGE                2 1 3 units box
fix 	       lowCub cubes wall/lj93 zlo EDGE                ${epsilonWall} ${sigma} ${repulsive} units box
fix 	       lowCub cubes wall/lj93 zlo EDGE                2 ${sigma} ${repulsive} units box
fix 	       lowCub cubes wall/lj93 zlo EDGE                2 1 ${repulsive} units box
fix 	       lowCub cubes wall/lj93 zlo EDGE                2 1 0.7147 units box


###################### COMPUTES ##########################

compute        bin1 solvent chunk/atom bin/1d z lower 1.0 units box
compute        bin3 solvent chunk/atom bin/3d x lower 5.0 y lower 5.0 z lower 5.0 units box

compute 	pe solvent 	   pe/atom
compute 	pe2 all 	   pe/atom

######################  FIXES ############################


fix             peclet solvent ave/chunk 10 10 10000 bin1 density/number norm                  none ave one file density.profile

fix              temp solvent ave/chunk 10 10 10000 bin1 temp norm                  none ave one file temp.profile

fix 		 dens solvent ave/chunk 10 10 500000 bin3 density/number norm 		 none ave one file dens3.profile

fix		 temp2 solvent ave/chunk 10 10 500000 bin3 temp norm none ave one file temp3.profile

fix 		pe solvent ave/chunk 1 1 500000 bin3 c_pe norm none ave one file pe3.profile



################### INTEGRATION

fix             1 cubes rigid/nve/small molecule
  create bodies CPU = 0.060 seconds
  490 rigid bodies with 362110 atoms
  5.5002725 = max distance from body owner to body atom

fix             2 solvent nve



## Thermostat
region          regthermo block EDGE EDGE EDGE EDGE 0 15
group           thermo dynamic solvent region regthermo every 1000
dynamic group thermo defined
fix             3 thermo langevin ${temp} ${temp} 10 156453
fix             3 thermo langevin 1.0 ${temp} 10 156453
fix             3 thermo langevin 1.0 1.0 10 156453

## Evaporation
region		regevap block EDGE EDGE EDGE EDGE 140 EDGE
fix 		4 solvent evaporate ${evap} 1 regevap 156415
fix 		4 solvent evaporate 37 1 regevap 156415


#### Load balancing

fix             bal all balance 1000 1.05 shift z 10 1.05

############### Diagnostics and computes ###################

compute        	com cubes          rigid/local   1 mol x y z
compute        	quat cubes         rigid/local   1 mol quatw quati quatj quatk

compute 	cc2 cubes 	   chunk/atom 	 molecule
compute 	msd cubes 	   msd/chunk 	 cc2

fix 		msd all ave/time  1 1 10000 c_msd[*] file dump.msd ave one mode vector

dump            1 all custom 500000 dump.lammpstrj id mol type x y z vx vy vz c_pe2
dump		sol  solvent custom 500000 dump.soltrj id x y z vx vy vz c_pe
dump		cubetrj cubes custom 500000 cubes.lammpstrj id mol type x y z vx vy vz
dump            com cubes local 500000 dump.*.xyz c_com[*]
dump	        xyz hull xyz 500000 cubes.xyz
#dump            quat cubes      local 100000 dump.*.quat c_quat[*]
dump		order cubes 	local 100000 dump.*.order c_com[*] c_quat[*]
#dump		mol cubes molfile 10000 mol.xyz xyz


dump            2 all image 100000 image.*.png type type zoom 1.5 size 1280 720
dump_modify     2 pad 8
dump		image cubes image 100000 image_cubes.*.png type type zoom 1.5 size 1280 720
dump_modify	image pad 8
dump            3 all movie 5000 movie.avi type type zoom 1.5 size 1280 720
dump		4 cubes movie 5000 movie_cubes.avi type type size 1280 720


thermo          1000
thermo_style    custom step temp epair evdwl etotal press pe ke atoms

restart         1000000 restart.dat
timestep        0.005
timer           full
New timer settings: style=full  mode=nosync  timeout=off

run 		${steps}
run 		30000000
Per MPI rank memory allocation (min/avg/max) = 16.61 | 22.51 | 24.80 Mbytes
Step Temp E_pair E_vdwl TotEng Press PotEng KinEng Atoms 
       0    1.0081968   -2.4639886   -2.4639886   -1.2834854  0.077474519   -2.4639886    1.1805032  1646021 
    1000    1.0092451   -2.4655424   -2.4655424   -1.2837924  0.066456517   -2.4655424      1.18175  1645994 
    2000    1.0079861   -2.4640709   -2.4640709   -1.2837757  0.070726647   -2.4640709    1.1802952  1645967 
    3000    1.0091412   -2.4650455   -2.4650455   -1.2833783  0.067979736   -2.4650455    1.1816672  1645940 
    4000    1.0096358   -2.4658132   -2.4658132   -1.2835476   0.06612217   -2.4658132    1.1822656  1645913 
    5000    1.0081211   -2.4644111   -2.4644111   -1.2838998  0.070701043   -2.4644111    1.1805113  1645886 
    6000    1.0089594    -2.465256    -2.465256   -1.2837436  0.071384874    -2.465256    1.1815123  1645859 
    7000     1.009362   -2.4655596   -2.4655596   -1.2835563  0.070110473   -2.4655596    1.1820033  1645832 
    8000    1.0091999   -2.4652309   -2.4652309   -1.2833982  0.068590653   -2.4652309    1.1818327  1645805 
    9000    1.0090014   -2.4654177   -2.4654177   -1.2837981  0.066880526   -2.4654177    1.1816197  1645778 
   10000     1.008995   -2.4652017   -2.4652017   -1.2835702  0.068504635   -2.4652017    1.1816316  1645751 
   11000    1.0090251   -2.4648094   -2.4648094   -1.2831232   0.06837328   -2.4648094    1.1816862  1645724 
   12000    1.0094356   -2.4659171   -2.4659171   -1.2837307   0.07000073   -2.4659171    1.1821864  1645697 
   13000     1.008933   -2.4653307   -2.4653307   -1.2837135  0.068601474   -2.4653307    1.1816172  1645670 
   14000    1.0099203   -2.4656504   -2.4656504   -1.2828576   0.07108918   -2.4656504    1.1827928  1645643 
   15000    1.0101689   -2.4658319   -2.4658319   -1.2827285  0.068561856   -2.4658319    1.1831034  1645616 
   16000    1.0101249   -2.4659259   -2.4659259   -1.2828545   0.07117163   -2.4659259    1.1830713  1645589 
   17000    1.0096881    -2.465366    -2.465366   -1.2827869  0.071943122    -2.465366    1.1825791  1645562 
   18000    1.0088147   -2.4645654   -2.4645654   -1.2829898  0.071483365   -2.4645654    1.1815756  1645535 
   19000    1.0094148   -2.4648469   -2.4648469   -1.2825491  0.072215811   -2.4648469    1.1822978  1645508 
   20000    1.0091953   -2.4644978   -2.4644978   -1.2824377  0.072076553   -2.4644978    1.1820601  1645481 
   21000    1.0090653   -2.4643959   -2.4643959   -1.2824688  0.069693884   -2.4643959    1.1819272  1645454 
   22000    1.0087478    -2.463955    -2.463955   -1.2823802  0.068244659    -2.463955    1.1815747  1645427 
   23000    1.0089997   -2.4643575   -2.4643575   -1.2824683  0.070475207   -2.4643575    1.1818892  1645400 
   24000    1.0085986   -2.4640528   -2.4640528    -1.282614  0.070815978   -2.4640528    1.1814387  1645373 
   25000    1.0087042   -2.4640328   -2.4640328   -1.2824509  0.069354788   -2.4640328    1.1815819  1645346 
   26000    1.0091686   -2.4647233   -2.4647233   -1.2825781  0.069565265   -2.4647233    1.1821452  1645319 
   27000    1.0080632   -2.4635434   -2.4635434   -1.2826738  0.070801161   -2.4635434    1.1808697  1645292 
   28000    1.0086216   -2.4645498   -2.4645498   -1.2830066  0.068570089   -2.4645498    1.1815432  1645265 
   29000    1.0084634   -2.4642774   -2.4642774   -1.2829001  0.070746679   -2.4642774    1.1813773  1645238 
   30000    1.0086603   -2.4642351   -2.4642351   -1.2826077  0.068848978   -2.4642351    1.1816274  1645211 
   31000    1.0087741   -2.4639165   -2.4639165   -1.2821365  0.068069018   -2.4639165      1.18178  1645184 
   32000    1.0086621   -2.4640377   -2.4640377   -1.2823694  0.071996504   -2.4640377    1.1816683  1645157 
   33000    1.0084871   -2.4636369   -2.4636369   -1.2821543  0.069820677   -2.4636369    1.1814826  1645130 
   34000    1.0083755   -2.4631121   -2.4631121   -1.2817408   0.06844986   -2.4631121    1.1813713  1645103 
   35000    1.0088096   -2.4637894   -2.4637894   -1.2818902  0.067389844   -2.4637894    1.1818992  1645076 
   36000    1.0085535   -2.4637362   -2.4637362   -1.2821177  0.070102645   -2.4637362    1.1816185  1645049 
   37000    1.0071501    -2.462262    -2.462262   -1.2822676  0.068450851    -2.462262    1.1799944  1645021 
   38000    1.0070928   -2.4620554   -2.4620554   -1.2821088  0.067419316   -2.4620554    1.1799467  1644994 
   39000    1.0073599   -2.4625547   -2.4625547   -1.2822758  0.071767113   -2.4625547     1.180279  1644967 
   40000    1.0078347   -2.4631687   -2.4631687   -1.2823139  0.066017622   -2.4631687    1.1808547  1644940 
   41000    1.0062615   -2.4615892   -2.4615892   -1.2825585   0.06776458   -2.4615892    1.1790308  1644913 
   42000    1.0060258   -2.4614317   -2.4614317   -1.2826578  0.066506758   -2.4614317    1.1787739  1644886 
   43000    1.0067087   -2.4622769   -2.4622769   -1.2826835  0.069392386   -2.4622769    1.1795934  1644859 
   44000    1.0070472   -2.4617477   -2.4617477   -1.2817382  0.067909501   -2.4617477    1.1800095  1644832 
   45000    1.0063845   -2.4612667   -2.4612667   -1.2820144  0.061281413   -2.4612667    1.1792523  1644805 
   46000    1.0069961   -2.4625951   -2.4625951   -1.2826068  0.065340747   -2.4625951    1.1799883  1644778 
   47000    1.0070797   -2.4623272   -2.4623272   -1.2822215  0.067149967   -2.4623272    1.1801057  1644751 
   48000    1.0073523   -2.4623874   -2.4623874    -1.281943   0.06385227   -2.4623874    1.1804444  1644724 
   49000    1.0076018   -2.4626119   -2.4626119   -1.2818558  0.065911782   -2.4626119    1.1807562  1644697 
   50000    1.0073207   -2.4619877   -2.4619877   -1.2815415  0.068700341   -2.4619877    1.1804462  1644670 
   51000    1.0079803   -2.4620436   -2.4620436   -1.2808051  0.069250907   -2.4620436    1.1812385  1644643 
   52000    1.0069292   -2.4607117   -2.4607117   -1.2806855  0.069537085   -2.4607117    1.1800262  1644616 
   53000    1.0075809   -2.4613632   -2.4613632   -1.2805538  0.065562202   -2.4613632    1.1808093  1644589 
   54000    1.0073599   -2.4607709   -2.4607709   -1.2802013   0.07118043   -2.4607709    1.1805696  1644562 
   55000    1.0067081   -2.4602991   -2.4602991    -1.280474  0.070034381   -2.4602991    1.1798251  1644535 
   56000    1.0078922   -2.4617825   -2.4617825   -1.2805502  0.072089886   -2.4617825    1.1812323  1644508 
   57000    1.0087753   -2.4625272   -2.4625272   -1.2802405  0.067819732   -2.4625272    1.1822867  1644481 
   58000    1.0086758   -2.4621989   -2.4621989   -1.2800094  0.072153981   -2.4621989    1.1821895  1644454 
   59000    1.0082159   -2.4617291   -2.4617291   -1.2800593  0.069654381   -2.4617291    1.1816698  1644427 
   60000    1.0083727   -2.4614807   -2.4614807   -1.2796077  0.071207245   -2.4614807    1.1818731  1644400 
   61000    1.0087351    -2.462017    -2.462017   -1.2796997   0.06702757    -2.462017    1.1823172  1644373 
   62000    1.0085705   -2.4612537   -2.4612537     -1.27911  0.071215321   -2.4612537    1.1821437  1644346 
   63000    1.0091168   -2.4618696   -2.4618696   -1.2790662  0.069898797   -2.4618696    1.1828034  1644319 
   64000    1.0086829    -2.461338    -2.461338   -1.2790237  0.069364042    -2.461338    1.1823143  1644292 
   65000    1.0091074   -2.4618165   -2.4618165   -1.2789852  0.069815369   -2.4618165    1.1828312  1644265 
   66000    1.0081229   -2.4605207   -2.4605207   -1.2788241  0.071466019   -2.4605207    1.1816967  1644238 
   67000    1.0081492   -2.4615228   -2.4615228   -1.2797759  0.069104674   -2.4615228    1.1817469  1644211 
   68000    1.0086079   -2.4621075   -2.4621075   -1.2798035  0.071778252   -2.4621075     1.182304  1644184 
   69000    1.0090018   -2.4625072   -2.4625072   -1.2797221  0.067052451   -2.4625072    1.1827851  1644157 
   70000     1.007499    -2.460989    -2.460989   -1.2799461  0.072996563    -2.460989    1.1810429  1644130 
   71000     1.008161   -2.4616299   -2.4616299   -1.2797915  0.069569593   -2.4616299    1.1818383  1644103 
   72000    1.0082981    -2.461637    -2.461637   -1.2796185  0.071998527    -2.461637    1.1820185  1644076 
   73000     1.008019   -2.4618367   -2.4618367   -1.2801261   0.07118594   -2.4618367    1.1817106  1644049 
   74000    1.0071317   -2.4607414   -2.4607414   -1.2800508  0.067797851   -2.4607414    1.1806906  1644021 
   75000    1.0071662   -2.4609649   -2.4609649   -1.2802144  0.070378624   -2.4609649    1.1807505  1643994 
   76000    1.0074218    -2.461282    -2.461282   -1.2802125  0.068941186    -2.461282    1.1810696  1643967 
   77000    1.0077141   -2.4614709   -2.4614709   -1.2800393  0.066265503   -2.4614709    1.1814316  1643940 
   78000    1.0068765   -2.4601885   -2.4601885   -1.2797195  0.073739526   -2.4601885     1.180469  1643913 
   79000    1.0086971   -2.4622028   -2.4622028   -1.2795799  0.065260385   -2.4622028    1.1826229  1643886 
   80000    1.0077886   -2.4617211   -2.4617211    -1.280144  0.069998051   -2.4617211    1.1815771  1643859 
   81000    1.0084686   -2.4626076   -2.4626076   -1.2802138  0.069240665   -2.4626076    1.1823938  1643832 
   82000    1.0083955   -2.4627785   -2.4627785    -1.280451  0.069200108   -2.4627785    1.1823275  1643805 
   83000     1.007799   -2.4623849   -2.4623849   -1.2807373  0.070778403   -2.4623849    1.1816476  1643778 
   84000     1.007721   -2.4620893   -2.4620893   -1.2805137  0.067696448   -2.4620893    1.1815755  1643751 
   85000    1.0087105   -2.4620255   -2.4620255   -1.2792704  0.071539318   -2.4620255    1.1827552  1643724 
   86000    1.0080569   -2.4615733   -2.4615733   -1.2795651    0.0654835   -2.4615733    1.1820082  1643697 
   87000    1.0076389   -2.4612849   -2.4612849   -1.2797474   0.07204531   -2.4612849    1.1815375  1643670 
   88000    1.0078804   -2.4613203   -2.4613203   -1.2794803  0.065506373   -2.4613203      1.18184  1643643 
   89000    1.0076902   -2.4609712   -2.4609712   -1.2793348  0.071178646   -2.4609712    1.1816365  1643616 
   90000    1.0076342    -2.460554    -2.460554   -1.2789638  0.069464814    -2.460554    1.1815903  1643589 
   91000    1.0077863   -2.4608391   -2.4608391   -1.2790511  0.069095875   -2.4608391     1.181788  1643562 
   92000    1.0073738   -2.4605223   -2.4605223   -1.2791986  0.070022085   -2.4605223    1.1813237  1643535 
   93000    1.0071247   -2.4602265   -2.4602265   -1.2791756  0.072250185   -2.4602265    1.1810509  1643508 
   94000    1.0080497   -2.4609174   -2.4609174   -1.2787624  0.074614023   -2.4609174    1.1821551  1643481 
   95000    1.0082551   -2.4609767   -2.4609767   -1.2785613  0.070737545   -2.4609767    1.1824154  1643454 
   96000    1.0084798   -2.4612788   -2.4612788   -1.2785804   0.07003686   -2.4612788    1.1826984  1643427 
   97000    1.0072211   -2.4599023   -2.4599023   -1.2786607  0.070595493   -2.4599023    1.1812416  1643400 
   98000    1.0069791   -2.4593852   -2.4593852    -1.278408  0.075457005   -2.4593852    1.1809772  1643373 
   99000    1.0078679   -2.4605835   -2.4605835   -1.2785445   0.06589489   -2.4605835     1.182039  1643346 
  100000    1.0075365   -2.4598557   -2.4598557   -1.2781859  0.067715961   -2.4598557    1.1816698  1643319 
  101000    1.0077027    -2.460456    -2.460456   -1.2785719  0.072456889    -2.460456    1.1818841  1643292 
  102000    1.0080965   -2.4609558   -2.4609558   -1.2785904  0.073337232   -2.4609558    1.1823654  1643265 
  103000     1.007231   -2.4607489   -2.4607489   -1.2793792  0.070947421   -2.4607489    1.1813697  1643238 
  104000    1.0075186   -2.4605762   -2.4605762   -1.2788497  0.070331615   -2.4605762    1.1817264  1643211 
  105000    1.0076127   -2.4602502   -2.4602502   -1.2783939  0.070775375   -2.4602502    1.1818563  1643184 
  106000    1.0072779   -2.4601073   -2.4601073   -1.2786243  0.069331787   -2.4601073     1.181483  1643157 
  107000     1.006491   -2.4592855   -2.4592855   -1.2787061  0.071646973   -2.4592855    1.1805794  1643130 
  108000    1.0078999   -2.4607121   -2.4607121   -1.2784608  0.071234638   -2.4607121    1.1822513  1643103 
  109000     1.007052   -2.4599189   -2.4599189   -1.2786428  0.071551082   -2.4599189    1.1812762  1643076 
  110000    1.0073221   -2.4595417   -2.4595417   -1.2779293  0.068285607   -2.4595417    1.1816124  1643049 
  111000    1.0062446   -2.4583991   -2.4583991   -1.2780306  0.067450533   -2.4583991    1.1803686  1643021 
  112000    1.0073055   -2.4593826   -2.4593826   -1.2777501   0.06971279   -2.4593826    1.1816325  1642994 
  113000    1.0066757   -2.4584782   -2.4584782    -1.277565  0.068079298   -2.4584782    1.1809131  1642967 
  114000    1.0050329   -2.4571469   -2.4571469   -1.2781415  0.069137165   -2.4571469    1.1790054  1642940 
  115000     1.007191   -2.4594665   -2.4594665   -1.2779101  0.067203527   -2.4594665    1.1815564  1642913 
  116000    1.0069738   -2.4586769   -2.4586769   -1.2773558  0.070801746   -2.4586769    1.1813211  1642886 
  117000    1.0067991   -2.4590186   -2.4590186   -1.2778831  0.072295535   -2.4590186    1.1811355  1642859 
  118000    1.0067832   -2.4589566   -2.4589566   -1.2778203  0.071317033   -2.4589566    1.1811363  1642832 
  119000     1.007263   -2.4595838   -2.4595838   -1.2778652  0.064675176   -2.4595838    1.1817186  1642805 
  120000    1.0060267   -2.4580289   -2.4580289   -1.2777412  0.070675964   -2.4580289    1.1802876  1642778 
  121000    1.0074501   -2.4592623   -2.4592623   -1.2772854   0.06943576   -2.4592623    1.1819769  1642751 
  122000     1.007454    -2.458794    -2.458794    -1.276793  0.069452615    -2.458794     1.182001  1642724 
  123000    1.0067204   -2.4579506   -2.4579506    -1.276791  0.070415406   -2.4579506    1.1811596  1642697 
  124000    1.0074953    -2.458627    -2.458627   -1.2765388  0.066445996    -2.458627    1.1820882  1642670 
  125000     1.007085   -2.4586074   -2.4586074   -1.2769812  0.069249855   -2.4586074    1.1816263  1642643 
  126000    1.0062448   -2.4581841   -2.4581841   -1.2775242  0.065786028   -2.4581841    1.1806599  1642616 
  127000    1.0058766   -2.4575749   -2.4575749   -1.2773277  0.069516301   -2.4575749    1.1802472  1642589 
  128000    1.0074131   -2.4587389   -2.4587389   -1.2766693  0.068009948   -2.4587389    1.1820695  1642562 
  129000    1.0066517   -2.4578805   -2.4578805   -1.2766849  0.073723952   -2.4578805    1.1811956  1642535 
  130000    1.0075704   -2.4582421   -2.4582421   -1.2759491  0.068066771   -2.4582421     1.182293  1642508 
  131000    1.0073749   -2.4588619   -2.4588619   -1.2767789  0.069551895   -2.4588619     1.182083  1642481 
  132000     1.006979   -2.4583325   -2.4583325   -1.2766946  0.070964545   -2.4583325    1.1816379  1642454 
  133000    1.0076918   -2.4584648   -2.4584648    -1.275971  0.071525633   -2.4584648    1.1824938  1642427 
  134000    1.0071353   -2.4579617   -2.4579617   -1.2761015  0.070787803   -2.4579617    1.1818602  1642400 
  135000    1.0065696   -2.4575846   -2.4575846   -1.2763689  0.070896715   -2.4575846    1.1812157  1642373 
  136000    1.0071551    -2.458453    -2.458453   -1.2765307  0.066412812    -2.458453    1.1819223  1642346 
  137000    1.0065346   -2.4577636   -2.4577636   -1.2765501  0.067511927   -2.4577636    1.1812135  1642319 
  138000    1.0057034   -2.4567688   -2.4567688   -1.2765114  0.066726748   -2.4567688    1.1802575  1642292 
  139000     1.005821   -2.4573627   -2.4573627   -1.2769477  0.069945772   -2.4573627    1.1804149  1642265 
  140000    1.0053355   -2.4568213   -2.4568213   -1.2769568   0.06697742   -2.4568213    1.1798645  1642238 
  141000    1.0062162   -2.4581115   -2.4581115    -1.277194  0.071428608   -2.4581115    1.1809175  1642211 
  142000    1.0067148   -2.4578896   -2.4578896   -1.2763675  0.068166514   -2.4578896     1.181522  1642184 
  143000    1.0065719    -2.458386    -2.458386   -1.2770122  0.070824772    -2.458386    1.1813738  1642157 
  144000    1.0061962   -2.4570985   -2.4570985   -1.2761463  0.070548537   -2.4570985    1.1809522  1642130 
  145000    1.0059563   -2.4572393   -2.4572393   -1.2765491   0.07122154   -2.4572393    1.1806902  1642103 
  146000    1.0060072   -2.4573263   -2.4573263    -1.276557  0.065313107   -2.4573263    1.1807693  1642076 
  147000    1.0054887   -2.4568946   -2.4568946   -1.2767144  0.070186898   -2.4568946    1.1801802  1642049 
  148000    1.0064602   -2.4579667   -2.4579667   -1.2766261   0.06816597   -2.4579667    1.1813406  1642021 
  149000    1.0053254   -2.4569963   -2.4569963   -1.2769684  0.069696375   -2.4569963    1.1800279  1641994 
  150000    1.0057429   -2.4574495   -2.4574495   -1.2769121  0.070886813   -2.4574495    1.1805374  1641967 
  151000    1.0062061   -2.4579865   -2.4579865    -1.276886  0.068626423   -2.4579865    1.1811005  1641940 
  152000    1.0065388   -2.4580268   -2.4580268   -1.2765163  0.067775714   -2.4580268    1.1815105  1641913 
  153000    1.0068273   -2.4585829   -2.4585829   -1.2767143  0.073599893   -2.4585829    1.1818686  1641886 
  154000     1.006132    -2.457994    -2.457994   -1.2769222  0.070157129    -2.457994    1.1810718  1641859 
  155000    1.0059097   -2.4574806   -2.4574806   -1.2766504  0.070362809   -2.4574806    1.1808303  1641832 
  156000    1.0053959   -2.4573822   -2.4573822   -1.2771357  0.065119783   -2.4573822    1.1802465  1641805 
  157000    1.0055736   -2.4577666   -2.4577666    -1.277292  0.069821351   -2.4577666    1.1804746  1641778 
  158000    1.0062741   -2.4582522   -2.4582522    -1.276936  0.068546787   -2.4582522    1.1813163  1641751 
  159000    1.0066166   -2.4590954   -2.4590954   -1.2773575  0.072666147   -2.4590954    1.1817379  1641724 
  160000    1.0065107   -2.4587169   -2.4587169    -1.277084  0.067777924   -2.4587169    1.1816329  1641697 
  161000    1.0068595   -2.4592887   -2.4592887   -1.2772268  0.071856206   -2.4592887    1.1820619  1641670 
  162000     1.006809     -2.45933     -2.45933   -1.2773079  0.068532444     -2.45933     1.182022  1641643 
  163000    1.0064596   -2.4586081   -2.4586081   -1.2769767  0.069019559   -2.4586081    1.1816313  1641616 
  164000    1.0056154   -2.4576981   -2.4576981   -1.2770385  0.069012603   -2.4576981    1.1806596  1641589 
  165000    1.0059956   -2.4581317   -2.4581317   -1.2770063  0.070616611   -2.4581317    1.1811253  1641562 
  166000    1.0063639   -2.4583065   -2.4583065   -1.2767293  0.070114969   -2.4583065    1.1815773  1641535 
  167000    1.0059339   -2.4577889   -2.4577889   -1.2766971   0.07171085   -2.4577889    1.1810918  1641508 
  168000    1.0061883   -2.4584866   -2.4584866   -1.2770767   0.07114575   -2.4584866    1.1814099  1641481 
  169000    1.0061283     -2.45763     -2.45763   -1.2762711  0.069663621     -2.45763    1.1813589  1641454 
  170000    1.0060168   -2.4571897   -2.4571897   -1.2759423  0.069238855   -2.4571897    1.1812474  1641427 
  171000    1.0074442   -2.4591738   -2.4591738    -1.276231  0.067730288   -2.4591738    1.1829429  1641400 
  172000    1.0058851   -2.4575659   -2.4575659   -1.2764343  0.069279608   -2.4575659    1.1811316  1641373 
  173000    1.0061921   -2.4581629   -2.4581629   -1.2766514  0.070156076   -2.4581629    1.1815116  1641346 
  174000    1.0052687   -2.4570632   -2.4570632   -1.2766165  0.072555485   -2.4570632    1.1804467  1641319 
  175000    1.0056608   -2.4576759   -2.4576759   -1.2767494  0.068268074   -2.4576759    1.1809265  1641292 
  176000    1.0064354   -2.4580393   -2.4580393   -1.2761837   0.06885841   -2.4580393    1.1818556  1641265 
  177000    1.0066428   -2.4579437   -2.4579437   -1.2758251  0.068248018   -2.4579437    1.1821186  1641238 
  178000    1.0063656   -2.4576038   -2.4576038   -1.2757913  0.069985713   -2.4576038    1.1818125  1641211 
  179000    1.0066995    -2.458059    -2.458059    -1.275835  0.070277074    -2.458059    1.1822241  1641184 
  180000     1.005579   -2.4565682   -2.4565682   -1.2756405  0.073126014   -2.4565682    1.1809276  1641157 
  181000    1.0064138   -2.4574303   -2.4574303   -1.2755029  0.070762499   -2.4574303    1.1819275  1641130 
  182000    1.0062568   -2.4572252   -2.4572252   -1.2754627  0.070498298   -2.4572252    1.1817625  1641103 
  183000    1.0061574   -2.4572124   -2.4572124   -1.2755472  0.068146124   -2.4572124    1.1816652  1641076 
  184000    1.0062889   -2.4574374   -2.4574374   -1.2755983  0.068284588   -2.4574374    1.1818391  1641049 
  185000    1.0056226    -2.456293    -2.456293   -1.2752162  0.071661983    -2.456293    1.1810767  1641021 
  186000    1.0059629   -2.4565857   -2.4565857   -1.2750898  0.072546691   -2.4565857    1.1814958  1640994 
  187000    1.0051599   -2.4555692   -2.4555692    -1.274997  0.072682303   -2.4555692    1.1805721  1640967 
  188000    1.0064809   -2.4564687   -2.4564687   -1.2743256  0.068079177   -2.4564687    1.1821431  1640940 
  189000    1.0056927   -2.4551886   -2.4551886   -1.2739518  0.069973612   -2.4551886    1.1812368  1640913 
  190000    1.0064351   -2.4563598   -2.4563598   -1.2742316  0.070467539   -2.4563598    1.1821282  1640886 
  191000    1.0060989   -2.4564271   -2.4564271   -1.2746744  0.070992648   -2.4564271    1.1817527  1640859 
  192000    1.0061083    -2.456214    -2.456214   -1.2744307  0.068878453    -2.456214    1.1817832  1640832 
  193000    1.0048504   -2.4551289   -2.4551289   -1.2748037  0.069403115   -2.4551289    1.1803251  1640805 
  194000    1.0054566   -2.4562191   -2.4562191   -1.2751626  0.069744272   -2.4562191    1.1810566  1640778 
  195000    1.0053738   -2.4561236   -2.4561236   -1.2751449  0.068168908   -2.4561236    1.1809787  1640751 
  196000    1.0053656   -2.4557441   -2.4557441   -1.2747555  0.068640839   -2.4557441    1.1809886  1640724 
  197000    1.0058753   -2.4562937   -2.4562937    -1.274687   0.06702832   -2.4562937    1.1816067  1640697 
  198000    1.0059957   -2.4563937   -2.4563937   -1.2746261  0.067407853   -2.4563937    1.1817677  1640670 
  199000    1.0068296   -2.4569105   -2.4569105   -1.2741438  0.066220036   -2.4569105    1.1827667  1640643 
  200000    1.0054986   -2.4552126   -2.4552126     -1.27399  0.070062377   -2.4552126    1.1812226  1640616 
  201000    1.0052516    -2.454266    -2.454266   -1.2733141  0.068901124    -2.454266    1.1809519  1640589 
  202000    1.0048805   -2.4543303   -2.4543303   -1.2737949  0.067497364   -2.4543303    1.1805353  1640562 
  203000    1.0047252    -2.454261    -2.454261   -1.2738887  0.070149436    -2.454261    1.1803723  1640535 
  204000    1.0050865   -2.4546192   -2.4546192    -1.273803  0.068835338   -2.4546192    1.1808162  1640508 
  205000    1.0049283   -2.4541842   -2.4541842   -1.2735345  0.068313437   -2.4541842    1.1806497  1640481 
  206000    1.0051811      -2.4548      -2.4548   -1.2738339  0.071062474      -2.4548    1.1809661  1640454 
  207000    1.0035694   -2.4526453   -2.4526453   -1.2735532  0.069111948   -2.4526453    1.1790921  1640427 
  208000    1.0037593   -2.4534399   -2.4534399   -1.2741054  0.067746362   -2.4534399    1.1793345  1640400 
  209000    1.0041899   -2.4541894   -2.4541894   -1.2743296  0.067479692   -2.4541894    1.1798599  1640373 
  210000    1.0052051   -2.4550317   -2.4550317   -1.2739596  0.070813895   -2.4550317    1.1810721  1640346 
  211000    1.0056227    -2.455467    -2.455467   -1.2738848  0.066399305    -2.455467    1.1815822  1640319 
  212000    1.0049148   -2.4550087   -2.4550087   -1.2742388  0.068142038   -2.4550087    1.1807699  1640292 
  213000    1.0040824   -2.4540949   -2.4540949   -1.2742836   0.06920664   -2.4540949    1.1798112  1640265 
  214000    1.0049263   -2.4550069   -2.4550069   -1.2741846  0.071720687   -2.4550069    1.1808223  1640238 
  215000    1.0048494   -2.4549959   -2.4549959   -1.2742444  0.069247429   -2.4549959    1.1807514  1640211 
  216000    1.0050377   -2.4547671   -2.4547671    -1.273775  0.068830301   -2.4547671     1.180992  1640184 
  217000     1.003916   -2.4534467   -2.4534467   -1.2737533  0.067600461   -2.4534467    1.1796934  1640157 
  218000    1.0047394   -2.4537571   -2.4537571   -1.2730766  0.072000432   -2.4537571    1.1806805  1640130 
  219000    1.0048696    -2.454335    -2.454335   -1.2734821  0.070841373    -2.454335    1.1808529  1640103 
  220000     1.004775   -2.4540326   -2.4540326   -1.2732714  0.065741643   -2.4540326    1.1807611  1640076 
  221000    1.0046483   -2.4540555   -2.4540555   -1.2734238  0.071296182   -2.4540555    1.1806318  1640049 
  222000    1.0051813   -2.4545164   -2.4545164   -1.2732382  0.067544286   -2.4545164    1.1812782  1640021 
  223000    1.0049218    -2.453751    -2.453751   -1.2727583  0.066874023    -2.453751    1.1809927  1639994 
  224000    1.0051095   -2.4543043   -2.4543043   -1.2730715  0.068566551   -2.4543043    1.1812328  1639967 
  225000    1.0060375   -2.4547533   -2.4547533   -1.2724105   0.07305448   -2.4547533    1.1823428  1639940 
  226000    1.0055058   -2.4546706   -2.4546706   -1.2729333  0.071798535   -2.4546706    1.1817373  1639913 
  227000    1.0056715   -2.4552212   -2.4552212   -1.2732695  0.069090747   -2.4552212    1.1819516  1639886 
  228000    1.0057223   -2.4550944   -2.4550944   -1.2730637  0.074199182   -2.4550944    1.1820308  1639859 
  229000    1.0064535   -2.4555755   -2.4555755   -1.2726659  0.069480773   -2.4555755    1.1829096  1639832 
  230000    1.0062231   -2.4555392   -2.4555392   -1.2728808  0.071747435   -2.4555392    1.1826584  1639805 
  231000    1.0061346   -2.4553592   -2.4553592   -1.2727855  0.070708937   -2.4553592    1.1825737  1639778 
  232000    1.0063828    -2.455679    -2.455679    -1.272794  0.071969401    -2.455679    1.1828849  1639751 
  233000    1.0054866    -2.454416    -2.454416    -1.272565  0.075714883    -2.454416     1.181851  1639724 
  234000    1.0066305   -2.4557195   -2.4557195   -1.2725045  0.069306136   -2.4557195     1.183215  1639697 
  235000    1.0059931   -2.4554083   -2.4554083    -1.272923  0.070696365   -2.4554083    1.1824853  1639670 
  236000    1.0057629   -2.4552216   -2.4552216   -1.2729874  0.073179346   -2.4552216    1.1822343  1639643 
  237000    1.0059859   -2.4553509   -2.4553509   -1.2728352  0.072808781   -2.4553509    1.1825158  1639616 
  238000     1.006481   -2.4560975   -2.4560975   -1.2729802  0.071400265   -2.4560975    1.1831173  1639589 
  239000    1.0066704   -2.4564624   -2.4564624    -1.273103  0.071644752   -2.4564624    1.1833595  1639562 
  240000    1.0063247    -2.455599    -2.455599   -1.2726265  0.069232482    -2.455599    1.1829725  1639535 
  241000    1.0056793   -2.4557047   -2.4557047   -1.2734714  0.068523102   -2.4557047    1.1822332  1639508 
  242000    1.0047908   -2.4552864   -2.4552864   -1.2740782  0.069744251   -2.4552864    1.1812082  1639481 
  243000     1.005063    -2.455421    -2.455421   -1.2738734  0.067575339    -2.455421    1.1815476  1639454 
  244000    1.0043753   -2.4548375   -2.4548375   -1.2740788  0.072803293   -2.4548375    1.1807587  1639427 
  245000    1.0046546   -2.4552567   -2.4552567   -1.2741502  0.070505464   -2.4552567    1.1811064  1639400 
  246000    1.0045789   -2.4556762   -2.4556762   -1.2746392  0.070835049   -2.4556762     1.181037  1639373 
  247000    1.0044723   -2.4549967   -2.4549967   -1.2740657  0.070444339   -2.4549967     1.180931  1639346 
  248000    1.0047257   -2.4550251   -2.4550251   -1.2737766  0.071232206   -2.4550251    1.1812485  1639319 
  249000    1.0051298   -2.4552081   -2.4552081    -1.273465  0.070820084   -2.4552081    1.1817431  1639292 
  250000    1.0049193   -2.4552909   -2.4552909   -1.2737759   0.07148187   -2.4552909     1.181515  1639265 
  251000    1.0043486   -2.4542867   -2.4542867   -1.2734233  0.069067655   -2.4542867    1.1808634  1639238 
  252000    1.0053727   -2.4557835   -2.4557835   -1.2736965  0.069159533   -2.4557835     1.182087  1639211 
  253000    1.0041718   -2.4543339   -2.4543339   -1.2736395  0.068658159   -2.4543339    1.1806945  1639184 
  254000    1.0047068   -2.4547542   -2.4547542   -1.2734112  0.069784108   -2.4547542     1.181343  1639157 
  255000    1.0041629   -2.4547758   -2.4547758   -1.2740528  0.068069284   -2.4547758    1.1807229  1639130 
  256000    1.0049165   -2.4551967   -2.4551967   -1.2735682  0.072810684   -2.4551967    1.1816285  1639103 
  257000    1.0053677   -2.4550941   -2.4550941   -1.2729156  0.072316764   -2.4550941    1.1821785  1639076 
  258000    1.0053204   -2.4548393   -2.4548393    -1.272697  0.072388707   -2.4548393    1.1821423  1639049 
  259000    1.0060701   -2.4556961   -2.4556961    -1.272652  0.069543238   -2.4556961    1.1830441  1639021 
  260000    1.0046718   -2.4544165   -2.4544165   -1.2729972   0.07029931   -2.4544165    1.1814193  1638994 
  261000    1.0050545   -2.4543036   -2.4543036   -1.2724149  0.074292199   -2.4543036    1.1818887  1638967 
  262000     1.005787   -2.4548847   -2.4548847    -1.272115  0.074096295   -2.4548847    1.1827697  1638940 
  263000    1.0061807   -2.4554173   -2.4554173   -1.2721651  0.071274406   -2.4554173    1.1832522  1638913 
  264000    1.0057418   -2.4546916   -2.4546916   -1.2719361  0.069447161   -2.4546916    1.1827555  1638886 
  265000    1.0050314   -2.4535859   -2.4535859   -1.2716464  0.071450902   -2.4535859    1.1819395  1638859 
  266000    1.0050614   -2.4535103   -2.4535103    -1.271516  0.071456961   -2.4535103    1.1819943  1638832 
  267000    1.0048954   -2.4537193   -2.4537193   -1.2719007  0.067066894   -2.4537193    1.1818185  1638805 
  268000    1.0035212     -2.45266     -2.45266   -1.2724383  0.072079413     -2.45266    1.1802218  1638778 
  269000    1.0045137   -2.4538023   -2.4538023   -1.2723938  0.071496798   -2.4538023    1.1814085  1638751 
  270000    1.0038674   -2.4531588   -2.4531588   -1.2724909  0.069992296   -2.4531588    1.1806678  1638724 
  271000    1.0050889   -2.4543916   -2.4543916   -1.2722676   0.06652555   -2.4543916     1.182124  1638697 
  272000    1.0042664   -2.4533573   -2.4533573   -1.2721813  0.068194836   -2.4533573    1.1811761  1638670 
  273000    1.0042125   -2.4532694   -2.4532694   -1.2721373  0.070515695   -2.4532694    1.1811321  1638643 
  274000    1.0042987   -2.4532855   -2.4532855   -1.2720326  0.068812746   -2.4532855    1.1812529  1638616 
  275000     1.004198   -2.4531286   -2.4531286   -1.2719746  0.073160128   -2.4531286     1.181154  1638589 
  276000    1.0046239   -2.4534493   -2.4534493   -1.2717749  0.067050613   -2.4534493    1.1816744  1638562 
  277000    1.0046531   -2.4535211   -2.4535211   -1.2717929  0.071607933   -2.4535211    1.1817282  1638535 
  278000    1.0043078   -2.4531352   -2.4531352   -1.2717936  0.067931347   -2.4531352    1.1813416  1638508 
  279000     1.004101   -2.4529599   -2.4529599   -1.2718421  0.069236507   -2.4529599    1.1811178  1638481 
  280000    1.0039161   -2.4523454   -2.4523454   -1.2714257  0.069071973   -2.4523454    1.1809197  1638454 
  281000    1.0038534   -2.4524711   -2.4524711   -1.2716057  0.070124392   -2.4524711    1.1808654  1638427 
  282000    1.0048662   -2.4530627   -2.4530627   -1.2709864  0.071646167   -2.4530627    1.1820763  1638400 
  283000     1.004131   -2.4521016   -2.4521016   -1.2708707  0.071124307   -2.4521016    1.1812309  1638373 
  284000    1.0048278   -2.4533232   -2.4533232   -1.2712531  0.070120065   -2.4533232    1.1820701  1638346 
  285000    1.0044271    -2.452197    -2.452197   -1.2705789  0.071195803    -2.452197    1.1816181  1638319 
  286000    1.0053061    -2.452891    -2.452891   -1.2702192  0.069491376    -2.452891    1.1826718  1638292 
  287000    1.0049221   -2.4535559   -2.4535559   -1.2713164  0.068700314   -2.4535559    1.1822395  1638265 
  288000    1.0049244   -2.4534793   -2.4534793   -1.2712176  0.069491065   -2.4534793    1.1822617  1638238 
  289000    1.0048279    -2.453037    -2.453037   -1.2708694  0.073487875    -2.453037    1.1821676  1638211 
  290000    1.0040359   -2.4523968   -2.4523968   -1.2711415  0.067571581   -2.4523968    1.1812553  1638184 
  291000    1.0047012   -2.4531014   -2.4531014   -1.2710439  0.069071302   -2.4531014    1.1820575  1638157 
  292000    1.0052837   -2.4531808   -2.4531808   -1.2704185  0.071128172   -2.4531808    1.1827623  1638130 
  293000    1.0053941   -2.4534201   -2.4534201   -1.2705083  0.070393397   -2.4534201    1.1829118  1638103 
  294000    1.0036079   -2.4517526   -2.4517526    -1.270923  0.069557969   -2.4517526    1.1808296  1638076 
  295000    1.0055229   -2.4539986   -2.4539986   -1.2708963  0.070064143   -2.4539986    1.1831023  1638049 
  296000    1.0047313   -2.4532368   -2.4532368   -1.2710458  0.065867131   -2.4532368     1.182191  1638021 
  297000    1.0048651   -2.4528932   -2.4528932   -1.2705252  0.070312305   -2.4528932     1.182368  1637994 
  298000    1.0040176    -2.451871    -2.451871   -1.2704808  0.069495278    -2.451871    1.1813902  1637967 
  299000    1.0039929   -2.4519174   -2.4519174   -1.2705368  0.070303043   -2.4519174    1.1813806  1637940 
  300000    1.0039981   -2.4523382   -2.4523382   -1.2709319  0.071215446   -2.4523382    1.1814063  1637913 
  301000    1.0041909   -2.4524435   -2.4524435   -1.2707908   0.07366167   -2.4524435    1.1816526  1637886 
  302000    1.0041597   -2.4522884   -2.4522884   -1.2706531  0.071625074   -2.4522884    1.1816353  1637859 
  303000     1.004018   -2.4520335   -2.4520335   -1.2705454  0.071177333   -2.4520335    1.1814881  1637832 
  304000    1.0041884    -2.452261    -2.452261   -1.2705528  0.069533603    -2.452261    1.1817081  1637805 
  305000    1.0035538   -2.4510145   -2.4510145   -1.2700338  0.070963355   -2.4510145    1.1809807  1637778 
  306000     1.004302   -2.4520286   -2.4520286   -1.2701478  0.072740378   -2.4520286    1.1818808  1637751 
  307000    1.0045733   -2.4522362   -2.4522362   -1.2700166  0.070316911   -2.4522362    1.1822196  1637724 
  308000    1.0041289   -2.4513702   -2.4513702   -1.2696543  0.073784323   -2.4513702     1.181716  1637697 
  309000    1.0047585   -2.4524209   -2.4524209   -1.2699445  0.069621498   -2.4524209    1.1824765  1637670 
  310000    1.0045724   -2.4519247   -2.4519247   -1.2696478  0.073052093   -2.4519247    1.1822769  1637643 
  311000    1.0043682   -2.4521881   -2.4521881    -1.270132  0.071957453   -2.4521881    1.1820561  1637616 
  312000    1.0045176   -2.4527084   -2.4527084    -1.270457  0.073622077   -2.4527084    1.1822514  1637589 
  313000    1.0044047    -2.452386    -2.452386    -1.270248  0.071071042    -2.452386     1.182138  1637562 
  314000    1.0047499   -2.4523686   -2.4523686   -1.2698047  0.067222829   -2.4523686    1.1825638  1637535 
  315000    1.0050496   -2.4524282   -2.4524282   -1.2694922  0.073726614   -2.4524282    1.1829361  1637508 
  316000    1.0047776   -2.4522471   -2.4522471   -1.2696116  0.071561731   -2.4522471    1.1826355  1637481 
  317000    1.0049059   -2.4525926   -2.4525926   -1.2697867  0.069234494   -2.4525926    1.1828059  1637454 
  318000    1.0040316   -2.4512297   -2.4512297   -1.2694334  0.071825014   -2.4512297    1.1817963  1637427 
  319000    1.0051083   -2.4523815   -2.4523815   -1.2692983  0.073295216   -2.4523815    1.1830832  1637400 
  320000    1.0043499   -2.4519447   -2.4519447   -1.2697348  0.070434795   -2.4519447    1.1822099  1637373 
  321000    1.0044056   -2.4519049   -2.4519049   -1.2696099   0.06833102   -2.4519049     1.182295  1637346 
  322000    1.0048274   -2.4524905   -2.4524905   -1.2696795  0.069706666   -2.4524905     1.182811  1637319 
  323000    1.0034153   -2.4509783   -2.4509783     -1.26981  0.069746571   -2.4509783    1.1811683  1637292 
  324000    1.0030726    -2.450817    -2.450817   -1.2700326    0.0734289    -2.450817    1.1807844  1637265 
  325000     1.004349   -2.4519485   -2.4519485   -1.2696421  0.072193659   -2.4519485    1.1823064  1637238 
  326000    1.0039837   -2.4513852   -2.4513852   -1.2694893  0.075799279   -2.4513852    1.1818959  1637211 
  327000     1.004193   -2.4519776   -2.4519776   -1.2698158  0.073061743   -2.4519776    1.1821618  1637184 
  328000    1.0031526   -2.4511664   -2.4511664   -1.2702099  0.073213497   -2.4511664    1.1809565  1637157 
  329000    1.0031715   -2.4512692   -2.4512692   -1.2702711  0.068411221   -2.4512692    1.1809981  1637130 
  330000    1.0035802   -2.4513541   -2.4513541   -1.2698553  0.072585931   -2.4513541    1.1814988  1637103 
  331000    1.0032331   -2.4512978   -2.4512978   -1.2701882  0.068763173   -2.4512978    1.1811096  1637076 
  332000    1.0021716   -2.4498477   -2.4498477   -1.2699684  0.071278405   -2.4498477    1.1798794  1637049 
  333000    1.0028159   -2.4505402   -2.4505402   -1.2698821  0.070499402   -2.4505402    1.1806581  1637021 
  334000    1.0031973   -2.4511733   -2.4511733   -1.2700467  0.069613518   -2.4511733    1.1811266  1636994 
  335000    1.0022149   -2.4501185   -2.4501185   -1.2701289  0.072888907   -2.4501185    1.1799895  1636967 
  336000    1.0033796   -2.4514008   -2.4514008   -1.2700205  0.068667174   -2.4514008    1.1813802  1636940 
  337000    1.0023669   -2.4506239   -2.4506239   -1.2704165  0.071627157   -2.4506239    1.1802074  1636913 
  338000    1.0030603   -2.4513504   -2.4513504   -1.2703071  0.071557412   -2.4513504    1.1810433  1636886 
  339000    1.0031592   -2.4513159   -2.4513159   -1.2701366  0.069691125   -2.4513159    1.1811792  1636859 
  340000    1.0037904   -2.4516981   -2.4516981   -1.2697562  0.068107223   -2.4516981     1.181942  1636832 
  341000    1.0029259   -2.4508614   -2.4508614    -1.269918  0.068343357   -2.4508614    1.1809434  1636805 
  342000    1.0024655   -2.4506347   -2.4506347   -1.2702139  0.070401877   -2.4506347    1.1804208  1636778 
  343000    1.0033719   -2.4514359   -2.4514359   -1.2699283  0.072532421   -2.4514359    1.1815076  1636751 
  344000    1.0026279   -2.4507114   -2.4507114   -1.2700604  0.069850776   -2.4507114     1.180651  1636724 
  345000    1.0031056   -2.4515845   -2.4515845   -1.2703515  0.065839059   -2.4515845     1.181233  1636697 
  346000    1.0017141   -2.4498972   -2.4498972   -1.2702833  0.067684587   -2.4498972    1.1796139  1636670 
  347000    1.0018327   -2.4497133   -2.4497133   -1.2699403   0.07119971   -2.4497133     1.179773  1636643 
  348000    1.0027952   -2.4503616   -2.4503616   -1.2694356  0.072214878   -2.4503616    1.1809259  1636616 
  349000    1.0021193   -2.4500733   -2.4500733   -1.2699238  0.071016741   -2.4500733    1.1801495  1636589 
  350000    1.0025159    -2.450629    -2.450629    -1.269993  0.073023189    -2.450629     1.180636  1636562 
  351000    1.0034227   -2.4513845   -2.4513845   -1.2696611  0.074566093   -2.4513845    1.1817234  1636535 
  352000    1.0028172   -2.4508313   -2.4508313   -1.2698016  0.067919056   -2.4508313    1.1810297  1636508 
  353000    1.0028195   -2.4507456   -2.4507456   -1.2696936  0.072546466   -2.4507456     1.181052  1636481 
  354000    1.0034116   -2.4511775   -2.4511775   -1.2694086  0.072620944   -2.4511775    1.1817689  1636454 
  355000    1.0036139   -2.4516734   -2.4516734   -1.2696468  0.068719647   -2.4516734    1.1820266  1636427 
  356000    1.0033487   -2.4513004   -2.4513004   -1.2695667  0.071318816   -2.4513004    1.1817338  1636400 
  357000     1.002598   -2.4506799   -2.4506799   -1.2698109  0.069164679   -2.4506799     1.180869  1636373 
  358000    1.0035547   -2.4520286   -2.4520286   -1.2700133  0.068142169   -2.4520286    1.1820153  1636346 
  359000    1.0035866    -2.451975    -2.451975   -1.2699026  0.070742095    -2.451975    1.1820724  1636319 
  360000     1.003327   -2.4517316   -2.4517316   -1.2699455   0.06885795   -2.4517316    1.1817861  1636292 
  361000    1.0034652   -2.4512423   -2.4512423   -1.2692739  0.066176349   -2.4512423    1.1819684  1636265 
  362000    1.0024318   -2.4507017   -2.4507017    -1.269931  0.070730514   -2.4507017    1.1807707  1636238 
  363000     1.003573   -2.4520064   -2.4520064    -1.269872  0.072751721   -2.4520064    1.1821345  1636211 
  364000    1.0024787   -2.4508601   -2.4508601   -1.2699952  0.071350754   -2.4508601    1.1808649  1636184 
  365000    1.0028394   -2.4511076   -2.4511076   -1.2697983  0.071726724   -2.4511076    1.1813093  1636157 
  366000    1.0034541   -2.4515702   -2.4515702   -1.2695173  0.070678561   -2.4515702    1.1820529  1636130 
  367000    1.0032797   -2.4508659   -2.4508659    -1.268999  0.069471883   -2.4508659    1.1818669  1636103 
  368000    1.0026004   -2.4504505   -2.4504505   -1.2693643  0.073862286   -2.4504505    1.1810862  1636076 
  369000    1.0031521   -2.4509581   -2.4509581   -1.2692025  0.072559727   -2.4509581    1.1817556  1636049 
  370000    1.0035299   -2.4517104   -2.4517104   -1.2694895  0.071266622   -2.4517104    1.1822209  1636021 
  371000    1.0031753   -2.4508557   -2.4508557   -1.2690329  0.070815908   -2.4508557    1.1818227  1635994 
  372000    1.0033758   -2.4507578   -2.4507578   -1.2686793  0.074672583   -2.4507578    1.1820784  1635967 
  373000    1.0029935   -2.4508048   -2.4508048   -1.2691572   0.06940065   -2.4508048    1.1816475  1635940 
  374000    1.0032512   -2.4506893   -2.4506893   -1.2687186  0.071951394   -2.4506893    1.1819707  1635913 
  375000    1.0039491   -2.4519331   -2.4519331   -1.2691206  0.068316953   -2.4519331    1.1828124  1635886 
  376000    1.0036441   -2.4515001   -2.4515001   -1.2690275  0.072181139   -2.4515001    1.1824726  1635859 
  377000    1.0030968   -2.4506331   -2.4506331   -1.2687858  0.069779905   -2.4506331    1.1818473  1635832 
  378000    1.0041819   -2.4521499   -2.4521499   -1.2690047  0.069164937   -2.4521499    1.1831452  1635805 
  379000    1.0027282   -2.4503314   -2.4503314   -1.2688793  0.069406106   -2.4503314     1.181452  1635778 
  380000    1.0026134   -2.4503438   -2.4503438   -1.2690076  0.071567681   -2.4503438    1.1813362  1635751 
  381000    1.0025515    -2.450177    -2.450177   -1.2688943  0.070459233    -2.450177    1.1812828  1635724 
  382000    1.0027107   -2.4503647   -2.4503647   -1.2688748  0.072128231   -2.4503647    1.1814898  1635697 
  383000    1.0018956   -2.4495085   -2.4495085   -1.2689596  0.069134397   -2.4495085    1.1805489  1635670 
  384000    1.0016664   -2.4485412   -2.4485412   -1.2682429   0.07061865   -2.4485412    1.1802984  1635643 
  385000    1.0016257   -2.4487067   -2.4487067   -1.2684368   0.06881158   -2.4487067    1.1802699  1635616 
  386000    1.0024256   -2.4489111   -2.4489111   -1.2676791  0.069098441   -2.4489111    1.1812319  1635589 
  387000    1.0020069   -2.4492489   -2.4492489   -1.2684909  0.072502416   -2.4492489     1.180758  1635562 
  388000    1.0015943   -2.4492596   -2.4492596   -1.2689682  0.068206931   -2.4492596    1.1802914  1635535 
  389000    1.0020036   -2.4493145   -2.4493145   -1.2685213  0.069782064   -2.4493145    1.1807932  1635508 
  390000    1.0023224   -2.4490758   -2.4490758   -1.2678875  0.066924159   -2.4490758    1.1811883  1635481 
  391000    1.0023672   -2.4489883   -2.4489883   -1.2677277  0.068680415   -2.4489883    1.1812606  1635454 
  392000    1.0012606   -2.4485774   -2.4485774   -1.2686015  0.069676529   -2.4485774    1.1799759  1635427 
  393000    1.0017362   -2.4493434   -2.4493434   -1.2687874  0.071695054   -2.4493434     1.180556  1635400 
  394000     1.002712   -2.4497511   -2.4497511   -1.2680256  0.069284143   -2.4497511    1.1817255  1635373 
  395000    1.0025866   -2.4501687   -2.4501687   -1.2685716  0.070506761   -2.4501687    1.1815972  1635346 
  396000    1.0016323   -2.4487343   -2.4487343   -1.2682423  0.070869564   -2.4487343     1.180492  1635319 
  397000    1.0016678   -2.4481268   -2.4481268   -1.2675734  0.076107621   -2.4481268    1.1805534  1635292 
  398000    1.0020738   -2.4490021   -2.4490021   -1.2679508  0.070802373   -2.4490021    1.1810513  1635265 
  399000    1.0016585   -2.4481398   -2.4481398   -1.2675584  0.068965664   -2.4481398    1.1805813  1635238 
  400000    1.0018502   -2.4485205   -2.4485205   -1.2676937  0.065803638   -2.4485205    1.1808268  1635211 
  401000    1.0016421   -2.4484192   -2.4484192   -1.2678183  0.067449747   -2.4484192     1.180601  1635184 
  402000    1.0016433   -2.4486019   -2.4486019   -1.2679801  0.067933163   -2.4486019    1.1806219  1635157 
  403000    1.0020248     -2.44889     -2.44889    -1.267799   0.06742449     -2.44889    1.1810911  1635130 
  404000    1.0023789   -2.4494003   -2.4494003   -1.2678723  0.067084774   -2.4494003     1.181528  1635103 
  405000    1.0018316   -2.4488027   -2.4488027   -1.2679003  0.069346281   -2.4488027    1.1809023  1635076 
  406000    1.0020317   -2.4489202   -2.4489202   -1.2677625  0.070977476   -2.4489202    1.1811577  1635049 
  407000    1.0019972   -2.4491422   -2.4491422   -1.2680049  0.070268472   -2.4491422    1.1811373  1635021 
  408000    1.0012673   -2.4482401   -2.4482401   -1.2679437  0.072219558   -2.4482401    1.1802964  1634994 
  409000     1.000655   -2.4473654   -2.4473654   -1.2677713  0.070026245   -2.4473654    1.1795941  1634967 
  410000    1.0021035   -2.4491625   -2.4491625   -1.2678413  0.067817039   -2.4491625    1.1813212  1634940 
  411000    1.0019751   -2.4487674   -2.4487674   -1.2675782  0.066641042   -2.4487674    1.1811892  1634913 
  412000    1.0017821   -2.4485223   -2.4485223    -1.267541  0.069754419   -2.4485223    1.1809813  1634886 
  413000    1.0013564   -2.4482622   -2.4482622   -1.2677633  0.071389216   -2.4482622    1.1804989  1634859 
  414000    1.0013521   -2.4484245   -2.4484245   -1.2679111  0.070190018   -2.4484245    1.1805134  1634832 
  415000    1.0013786   -2.4480418   -2.4480418   -1.2674778  0.069744793   -2.4480418     1.180564  1634805 
  416000     1.002455   -2.4498254   -2.4498254   -1.2679729  0.072073092   -2.4498254    1.1818526  1634778 
  417000    1.0023539   -2.4494213   -2.4494213   -1.2676684  0.070814509   -2.4494213    1.1817529  1634751 
  418000    1.0022624   -2.4485148   -2.4485148   -1.2668502  0.072703105   -2.4485148    1.1816646  1634724 
  419000    1.0020567   -2.4491517   -2.4491517   -1.2677101   0.06897145   -2.4491517    1.1814416  1634697 
  420000     1.002297   -2.4498093   -2.4498093   -1.2680649  0.070548603   -2.4498093    1.1817444  1634670 
  421000     1.001872   -2.4496191   -2.4496191   -1.2683563  0.070537981   -2.4496191    1.1812628  1634643 
  422000    1.0018448   -2.4493979   -2.4493979   -1.2681477  0.069862547   -2.4493979    1.1812502  1634616 
  423000    1.0012109   -2.4488058   -2.4488058   -1.2682834  0.068828555   -2.4488058    1.1805224  1634589 
  424000    1.0013833   -2.4488681   -2.4488681    -1.268123  0.073684373   -2.4488681    1.1807451  1634562 
  425000     1.001533   -2.4491543   -2.4491543   -1.2682132  0.068768799   -2.4491543    1.1809411  1634535 
  426000    1.0008107   -2.4485385   -2.4485385   -1.2684297  0.069713657   -2.4485385    1.1801089  1634508 
  427000      1.00161    -2.450094    -2.450094   -1.2690231  0.065712007    -2.450094     1.181071  1634481 
  428000    1.0017261    -2.449768    -2.449768   -1.2685406  0.072582607    -2.449768    1.1812274  1634454 
  429000    1.0010422    -2.448768    -2.448768   -1.2683277  0.068259664    -2.448768    1.1804404  1634427 
  430000    1.0013616   -2.4492959   -2.4492959   -1.2684593   0.06829196   -2.4492959    1.1808366  1634400 
  431000    1.0013121   -2.4492282   -2.4492282   -1.2684306  0.071017935   -2.4492282    1.1807977  1634373 
  432000    1.0013681   -2.4491511   -2.4491511   -1.2682679  0.071930046   -2.4491511    1.1808832  1634346 
  433000    1.0022522   -2.4498654   -2.4498654   -1.2679201  0.069700153   -2.4498654    1.1819453  1634319 
  434000    1.0017749   -2.4493606   -2.4493606   -1.2679587  0.075551252   -2.4493606     1.181402  1634292 
  435000     1.001462   -2.4484829   -2.4484829   -1.2674305  0.070685373   -2.4484829    1.1810524  1634265 
  436000    1.0014664   -2.4488693   -2.4488693   -1.2677921   0.06838066   -2.4488693    1.1810772  1634238 
  437000    1.0027672    -2.449955    -2.449955   -1.2673242  0.070933596    -2.449955    1.1826308  1634211 
  438000     1.003222   -2.4506085   -2.4506085   -1.2674217  0.073711508   -2.4506085    1.1831868  1634184 
  439000    1.0023182   -2.4493281   -2.4493281   -1.2671877  0.068818732   -2.4493281    1.1821403  1634157 
  440000    1.0021388   -2.4494842   -2.4494842   -1.2675359  0.069852175   -2.4494842    1.1819483  1634130 
  441000    1.0016731   -2.4489251   -2.4489251   -1.2675065  0.069914884   -2.4489251    1.1814186  1634103 
  442000    1.0017762   -2.4484238   -2.4484238   -1.2668641  0.072319868   -2.4484238    1.1815597  1634076 
  443000    1.0015704   -2.4479185   -2.4479185    -1.266582  0.069966405   -2.4479185    1.1813364  1634049 
  444000    1.0016379   -2.4481224   -2.4481224   -1.2666861  0.067483429   -2.4481224    1.1814364  1634021 
  445000    1.0021086   -2.4485387   -2.4485387   -1.2665276  0.069594792   -2.4485387    1.1820111  1633994 
  446000    1.0012229   -2.4474931   -2.4474931   -1.2665072  0.071994672   -2.4474931    1.1809859  1633967 
  447000    1.0012679   -2.4482283   -2.4482283   -1.2671698  0.071667495   -2.4482283    1.1810585  1633940 
  448000    1.0005175   -2.4473286   -2.4473286   -1.2671357  0.071985117   -2.4473286    1.1801929  1633913 
  449000    1.0019492   -2.4486949   -2.4486949   -1.2667938  0.067046581   -2.4486949    1.1819011  1633886 
  450000    1.0014699   -2.4481871   -2.4481871   -1.2668319  0.067875213   -2.4481871    1.1813553  1633859 
  451000    1.0001674   -2.4468777   -2.4468777   -1.2670393   0.06720103   -2.4468777    1.1798384  1633832 
  452000     1.001966   -2.4488046   -2.4488046    -1.266825  0.068908451   -2.4488046    1.1819796  1633805 
  453000    1.0016361    -2.448021    -2.448021    -1.266411  0.065274989    -2.448021      1.18161  1633778 
  454000    1.0005298   -2.4471446   -2.4471446   -1.2668202  0.069755306   -2.4471446    1.1803243  1633751 
  455000    1.0014119   -2.4477607   -2.4477607   -1.2663762  0.070248829   -2.4477607    1.1813845  1633724 
  456000    1.0011159   -2.4477237   -2.4477237   -1.2666688  0.071688179   -2.4477237    1.1810548  1633697 
  457000    1.0003706   -2.4467697   -2.4467697   -1.2665746  0.070333205   -2.4467697     1.180195  1633670 
  458000    1.0013233    -2.447782    -2.447782   -1.2664435  0.067464227    -2.447782    1.1813385  1633643 
  459000    1.0006121   -2.4470814   -2.4470814   -1.2665625  0.068940801   -2.4470814     1.180519  1633616 
  460000    1.0003346   -2.4466415   -2.4466415   -1.2664303  0.070110969   -2.4466415    1.1802111  1633589 
  461000    1.0012514    -2.447682    -2.447682   -1.2663697  0.072025723    -2.447682    1.1813123  1633562 
  462000    1.0008852   -2.4473406   -2.4473406   -1.2664408  0.068772962   -2.4473406    1.1808998  1633535 
  463000   0.99984289    -2.446179    -2.446179   -1.2664895  0.075965174    -2.446179    1.1796895  1633508 
  464000    1.0006727   -2.4473001   -2.4473001    -1.266612    0.0698098   -2.4473001    1.1806881  1633481 
  465000    1.0008143   -2.4479624   -2.4479624   -1.2670878  0.071519332   -2.4479624    1.1808746  1633454 
  466000    1.0002219   -2.4467597   -2.4467597   -1.2665645  0.069441596   -2.4467597    1.1801952  1633427 
  467000   0.99999613   -2.4467363   -2.4467363    -1.266788  0.069782835   -2.4467363    1.1799483  1633400 
  468000   0.99975816   -2.4465654   -2.4465654   -1.2668784  0.071529849   -2.4465654     1.179687  1633373 
  469000     1.001265    -2.447686    -2.447686   -1.2662014  0.069287184    -2.447686    1.1814846  1633346 
  470000   0.99960923   -2.4462178   -2.4462178   -1.2666675  0.072152973   -2.4462178    1.1795503  1633319 
  471000    1.0003676   -2.4466022   -2.4466022   -1.2661375  0.069596328   -2.4466022    1.1804646  1633292 
  472000     1.000414   -2.4466034   -2.4466034   -1.2660645  0.065069493   -2.4466034    1.1805389  1633265 
  473000    1.0006894    -2.446606    -2.446606   -1.2657226  0.068698109    -2.446606    1.1808835  1633238 
  474000    1.0007145    -2.445647    -2.445647   -1.2647145  0.069776961    -2.445647    1.1809326  1633211 
  475000    0.9996494   -2.4449007   -2.4449007   -1.2652055  0.071392685   -2.4449007    1.1796952  1633184 
  476000    1.0001848    -2.445355    -2.445355   -1.2650085  0.074673011    -2.445355    1.1803465  1633157 
  477000    1.0006935   -2.4460035   -2.4460035   -1.2650372  0.071325812   -2.4460035    1.1809664  1633130 
  478000    1.0015319   -2.4470925   -2.4470925   -1.2651171  0.069501451   -2.4470925    1.1819753  1633103 
  479000    1.0007672   -2.4462783   -2.4462783   -1.2651859  0.073133743   -2.4462783    1.1810924  1633076 
  480000    1.0004085   -2.4461691   -2.4461691   -1.2654805  0.067720813   -2.4461691    1.1806886  1633049 
  481000    1.0002576   -2.4457272   -2.4457272   -1.2651965  0.068621945   -2.4457272    1.1805307  1633021 
  482000    1.0004935   -2.4457308   -2.4457308   -1.2649021  0.067449871   -2.4457308    1.1808287  1632994 
  483000    1.0014824   -2.4471082   -2.4471082   -1.2650928  0.069845309   -2.4471082    1.1820154  1632967 
  484000     1.002235   -2.4474619   -2.4474619   -1.2645387  0.070313721   -2.4474619    1.1829231  1632940 
  485000    1.0009139   -2.4460581   -2.4460581   -1.2646746  0.074202591   -2.4460581    1.1813834  1632913 
  486000    1.0007996   -2.4459506   -2.4459506   -1.2646825  0.071990896   -2.4459506    1.1812681  1632886 
  487000    1.0008503   -2.4462151   -2.4462151   -1.2648676  0.074324109   -2.4462151    1.1813475  1632859 
  488000    1.0001786   -2.4453546   -2.4453546   -1.2647804  0.071201176   -2.4453546    1.1805742  1632832 
  489000    1.0010541    -2.446158    -2.446158   -1.2645309  0.070361885    -2.446158    1.1816271  1632805 
  490000     1.000113   -2.4456755   -2.4456755   -1.2651398  0.072201341   -2.4456755    1.1805357  1632778 
  491000    1.0003041   -2.4459675   -2.4459675   -1.2651867  0.065964654   -2.4459675    1.1807808  1632751 
  492000    1.0001661   -2.4459892   -2.4459892   -1.2653517   0.06700937   -2.4459892    1.1806374  1632724 
  493000    0.9998198   -2.4453318   -2.4453318   -1.2650836  0.072535254   -2.4453318    1.1802482  1632697 
  494000   0.99984016   -2.4458064   -2.4458064   -1.2655146  0.070486267   -2.4458064    1.1802918  1632670 
  495000    1.0003512   -2.4459505   -2.4459505    -1.265036  0.069930722   -2.4459505    1.1809145  1632643 
  496000    1.0008626   -2.4461427   -2.4461427   -1.2646048  0.071594272   -2.4461427    1.1815378  1632616 
  497000    1.0008356   -2.4462721   -2.4462721   -1.2647466  0.067495839   -2.4462721    1.1815255  1632589 
  498000    1.0009597   -2.4463771   -2.4463771   -1.2646856  0.067185315   -2.4463771    1.1816915  1632562 
  499000    1.0005958   -2.4454937   -2.4454937   -1.2642123  0.069786959   -2.4454937    1.1812815  1632535 
  500000   0.99953503   -2.4444717   -2.4444717    -1.264423  0.070016455   -2.4444717    1.1800486  1632508 
  501000   0.99986187   -2.4453674   -2.4453674   -1.2649134  0.070165066   -2.4453674     1.180454  1632481 
  502000    1.0004822    -2.445465    -2.445465   -1.2642591  0.070248995    -2.445465    1.1812059  1632454 
  503000    0.9999924   -2.4448579   -2.4448579   -1.2642107  0.068390024   -2.4448579    1.1806472  1632427 
  504000    1.0007716   -2.4452507   -2.4452507    -1.263664  0.069426036   -2.4452507    1.1815867  1632400 
  505000    1.0009661   -2.4450705   -2.4450705   -1.2632346  0.072636377   -2.4450705    1.1818359  1632373 
  506000     1.001143   -2.4453438   -2.4453438   -1.2632795   0.07286102   -2.4453438    1.1820643  1632346 
  507000    1.0003132   -2.4438602   -2.4438602   -1.2627561  0.072130497   -2.4438602    1.1811041  1632319 
  508000    1.0013039    -2.445229    -2.445229   -1.2629356  0.071703846    -2.445229    1.1822934  1632292 
  509000    1.0006399   -2.4446591   -2.4446591   -1.2631302  0.070148865   -2.4446591    1.1815289  1632265 
  510000    1.0000334   -2.4442173   -2.4442173    -1.263385   0.07142364   -2.4442173    1.1808323  1632238 
  511000    1.0003836   -2.4444292   -2.4444292   -1.2631637  0.069919837   -2.4444292    1.1812654  1632211 
  512000    1.0015713   -2.4455647   -2.4455647   -1.2628773  0.069483679   -2.4455647    1.1826874  1632184 
  513000    1.0010757   -2.4451146   -2.4451146   -1.2629929  0.070096422   -2.4451146    1.1821217  1632157 
  514000    1.0002616   -2.4444867   -2.4444867   -1.2633067  0.073473503   -2.4444867      1.18118  1632130 
  515000     1.000572   -2.4448851   -2.4448851   -1.2633191  0.070080092   -2.4448851     1.181566  1632103 
  516000    1.0000626   -2.4444999   -2.4444999   -1.2635159  0.068867042   -2.4444999     1.180984  1632076 
  517000   0.99960369   -2.4440345   -2.4440345   -1.2635729   0.07212141   -2.4440345    1.1804616  1632049 
  518000   0.99912228   -2.4431109   -2.4431109   -1.2631976  0.070754116   -2.4431109    1.1799133  1632021 
  519000    1.0002082   -2.4437683   -2.4437683   -1.2625531  0.068066457   -2.4437683    1.1812153  1631994 
  520000    1.0002022   -2.4440274   -2.4440274   -1.2627997  0.068693524   -2.4440274    1.1812277  1631967 
  521000     1.000229    -2.443893    -2.443893   -1.2626141  0.070743348    -2.443893     1.181279  1631940 
  522000    1.0003664   -2.4443305   -2.4443305   -1.2628698  0.071816453   -2.4443305    1.1814607  1631913 
  523000    1.0002199   -2.4442819   -2.4442819   -1.2629745  0.072990492   -2.4442819    1.1813073  1631886 
  524000    1.0005998   -2.4444075   -2.4444075    -1.262632  0.075407811   -2.4444075    1.1817755  1631859 
  525000   0.99974324   -2.4439475   -2.4439475   -1.2631641  0.071260284   -2.4439475    1.1807834  1631832 
  526000   0.99899461   -2.4434874   -2.4434874   -1.2635687  0.069808326   -2.4434874    1.1799187  1631805 
  527000   0.99944105   -2.4440538   -2.4440538   -1.2635882  0.068208361   -2.4440538    1.1804656  1631778 
  528000     1.000245   -2.4443944   -2.4443944   -1.2629597  0.070635558   -2.4443944    1.1814347  1631751 
  529000    1.0001247   -2.4445012   -2.4445012   -1.2631891  0.069196337   -2.4445012    1.1813122  1631724 
  530000   0.99959674   -2.4436412   -2.4436412   -1.2629332  0.067980802   -2.4436412     1.180708  1631697 
  531000   0.99926326   -2.4432513   -2.4432513   -1.2629177  0.069830951   -2.4432513    1.1803337  1631670 
  532000   0.99865652   -2.4428061   -2.4428061   -1.2631696  0.074512889   -2.4428061    1.1796365  1631643 
  533000   0.99989556   -2.4437066   -2.4437066   -1.2625869  0.069531724   -2.4437066    1.1811196  1631616 
  534000   0.99904735   -2.4427676   -2.4427676   -1.2626303  0.069172443   -2.4427676    1.1801372  1631589 
  535000   0.99994821   -2.4440076   -2.4440076   -1.2627867  0.070393081   -2.4440076    1.1812209  1631562 
  536000   0.99890241   -2.4430963   -2.4430963   -1.2630913   0.06945976   -2.4430963    1.1800051  1631535 
  537000   0.99916331   -2.4430862   -2.4430862   -1.2627534  0.070746226   -2.4430862    1.1803328  1631508 
  538000   0.99994889   -2.4441412   -2.4441412   -1.2628609  0.069887922   -2.4441412    1.1812804  1631481 
  539000   0.99923694    -2.443101    -2.443101   -1.2626421   0.07176082    -2.443101    1.1804589  1631454 
  540000   0.99902484   -2.4423433   -2.4423433   -1.2621155  0.071956883   -2.4423433    1.1802278  1631427 
  541000   0.99914754   -2.4422995   -2.4422995   -1.2619072    0.0693501   -2.4422995    1.1803923  1631400 
  542000    1.0001993   -2.4432076   -2.4432076   -1.2615532  0.072111254   -2.4432076    1.1816544  1631373 
  543000    1.0005302   -2.4440111   -2.4440111   -1.2619461  0.074269486   -2.4440111    1.1820649  1631346 
  544000    0.9996091   -2.4429061   -2.4429061   -1.2619098  0.070201201   -2.4429061    1.1809962  1631319 
  545000   0.99957289   -2.4429421   -2.4429421   -1.2619691  0.074786055   -2.4429421     1.180973  1631292 
  546000   0.99896632   -2.4427546   -2.4427546   -1.2624788  0.068816383   -2.4427546    1.1802759  1631265 
  547000   0.99949636   -2.4430534   -2.4430534   -1.2621318  0.068004688   -2.4430534    1.1809217  1631238 
  548000   0.99931445   -2.4425623   -2.4425623    -1.261836  0.072279412   -2.4425623    1.1807263  1631211 
  549000   0.99934703   -2.4427257   -2.4427257   -1.2619414  0.070550426   -2.4427257    1.1807843  1631184 
  550000   0.99913346   -2.4428358   -2.4428358   -1.2622843  0.069549541   -2.4428358    1.1805515  1631157 
  551000   0.99928391   -2.4431413   -2.4431413   -1.2623924  0.070944681   -2.4431413    1.1807488  1631130 
  552000   0.99824783   -2.4419996   -2.4419996   -1.2624554  0.070426093   -2.4419996    1.1795441  1631103 
  553000   0.99854011    -2.442078    -2.442078    -1.262169  0.069033185    -2.442078     1.179909  1631076 
  554000   0.99795595   -2.4413983   -2.4413983     -1.26216  0.070610271   -2.4413983    1.1792383  1631049 
  555000   0.99933232   -2.4435831   -2.4435831   -1.2626982  0.069722705   -2.4435831     1.180885  1631021 
  556000   0.99823617   -2.4426543   -2.4426543   -1.2630451   0.07043638   -2.4426543    1.1796092  1630994 
  557000    0.9986179   -2.4427921   -2.4427921   -1.2627123  0.069568161   -2.4427921    1.1800798  1630967 
  558000   0.99895322   -2.4431103   -2.4431103   -1.2626147  0.069656183   -2.4431103    1.1804956  1630940 
  559000   0.99964541   -2.4436672   -2.4436672   -1.2623341  0.068626146   -2.4436672    1.1813331  1630913 
  560000   0.99932315   -2.4432278   -2.4432278   -1.2622559  0.067006803   -2.4432278    1.1809719  1630886 
  561000   0.99983577   -2.4433677   -2.4433677   -1.2617705   0.07002985   -2.4433677    1.1815972  1630859 
  562000   0.99899301   -2.4422675   -2.4422675   -1.2616467  0.073273204   -2.4422675    1.1806208  1630832 
  563000   0.99891719   -2.4419194   -2.4419194   -1.2613686   0.07254153   -2.4419194    1.1805507  1630805 
  564000   0.99968511   -2.4425542   -2.4425542   -1.2610763  0.072903188   -2.4425542    1.1814779  1630778 
  565000   0.99931738   -2.4423179   -2.4423179   -1.2612551  0.071660325   -2.4423179    1.1810628  1630751 
  566000   0.99984234   -2.4432478   -2.4432478    -1.261545  0.071486553   -2.4432478    1.1817028  1630724 
  567000   0.99875403   -2.4414483   -2.4414483   -1.2610122  0.074238452   -2.4414483    1.1804361  1630697 
  568000   0.99936958   -2.4420389   -2.4420389   -1.2608557  0.072777911   -2.4420389    1.1811832  1630670 
  569000   0.99943837   -2.4423124   -2.4423124   -1.2610283  0.071819798   -2.4423124     1.181284  1630643 
  570000   0.99930133   -2.4420711   -2.4420711   -1.2609294  0.074364195   -2.4420711    1.1811416  1630616 
  571000    1.0002642   -2.4429068   -2.4429068   -1.2606076  0.069734873   -2.4429068    1.1822993  1630589 
  572000   0.99867897   -2.4413007   -2.4413007   -1.2608556  0.072768719   -2.4413007    1.1804451  1630562 
  573000   0.99978104     -2.44196     -2.44196   -1.2601927  0.070221473     -2.44196    1.1817673  1630535 
  574000    1.0004799   -2.4430445   -2.4430445   -1.2604316  0.067471928   -2.4430445    1.1826129  1630508 
  575000   0.99974564   -2.4425435   -2.4425435   -1.2607788  0.067326699   -2.4425435    1.1817646  1630481 
  576000    0.9986745   -2.4416441   -2.4416441    -1.261126  0.068998419   -2.4416441     1.180518  1630454 
  577000   0.99779681   -2.4407894   -2.4407894   -1.2612894  0.069955093   -2.4407894       1.1795  1630427 
  578000   0.99889756   -2.4426508   -2.4426508     -1.26183  0.068501253   -2.4426508    1.1808208  1630400 
  579000   0.99822366   -2.4416558   -2.4416558   -1.2616121  0.070240144   -2.4416558    1.1800437  1630373 
  580000   0.99839569   -2.4419248   -2.4419248   -1.2616581  0.068637594   -2.4419248    1.1802666  1630346 
  581000   0.99838084   -2.4418465   -2.4418465   -1.2615779  0.069301456   -2.4418465    1.1802686  1630319 
  582000    0.9988391   -2.4426977   -2.4426977   -1.2618678  0.069031712   -2.4426977    1.1808299  1630292 
  583000   0.99957354   -2.4433802   -2.4433802   -1.2616624  0.067666076   -2.4433802    1.1817177  1630265 
  584000   0.99828052   -2.4421433   -2.4421433   -1.2619346  0.071605125   -2.4421433    1.1802087  1630238 
  585000   0.99773314   -2.4411636   -2.4411636   -1.2615826  0.070645179   -2.4411636    1.1795811  1630211 
  586000   0.99828851   -2.4416372   -2.4416372     -1.26138  0.069229228   -2.4416372    1.1802572  1630184 
  587000   0.99924323   -2.4428112   -2.4428112   -1.2614057  0.068333428   -2.4428112    1.1814055  1630157 
  588000   0.99783157   -2.4415606   -2.4415606   -1.2618046  0.071057266   -2.4415606     1.179756  1630130 
  589000   0.99853527   -2.4420384   -2.4420384   -1.2614308    0.0690067   -2.4420384    1.1806076  1630103 
  590000   0.99871552   -2.4419948   -2.4419948   -1.2611545    0.0681865   -2.4419948    1.1808403  1630076 
  591000   0.99845571   -2.4413278   -2.4413278   -1.2607752  0.067880385   -2.4413278    1.1805526  1630049 
  592000   0.99836286   -2.4411568   -2.4411568   -1.2606937  0.070924742   -2.4411568    1.1804631  1630021 
  593000   0.99864511   -2.4419078   -2.4419078   -1.2610914  0.068472154   -2.4419078    1.1808164  1629994 
  594000   0.99867602   -2.4416776   -2.4416776   -1.2608051  0.070800833   -2.4416776    1.1808725  1629967 
  595000   0.99847111   -2.4414952   -2.4414952   -1.2608454  0.070561629   -2.4414952    1.1806498  1629940 
  596000   0.99842435   -2.4415315   -2.4415315   -1.2609175  0.070274866   -2.4415315    1.1806141  1629913 
  597000   0.99830984   -2.4413955   -2.4413955   -1.2608973  0.071925159   -2.4413955    1.1804982  1629886 
  598000   0.99910914   -2.4420142   -2.4420142   -1.2605512  0.070488044   -2.4420142    1.1814629  1629859 
  599000   0.99847083   -2.4410343   -2.4410343   -1.2603066  0.072464087   -2.4410343    1.1807277  1629832 
  600000   0.99853558    -2.440573    -2.440573   -1.2597492  0.071446027    -2.440573    1.1808238  1629805 
  601000   0.99859464   -2.4408627   -2.4408627   -1.2599495  0.072313971   -2.4408627    1.1809132  1629778 
  602000   0.99845186   -2.4406225   -2.4406225   -1.2598586  0.073162554   -2.4406225    1.1807639  1629751 
  603000   0.99900155   -2.4416256   -2.4416256    -1.260192  0.071836011   -2.4416256    1.1814336  1629724 
  604000   0.99930259   -2.4418533   -2.4418533   -1.2600441  0.073126438   -2.4418533    1.1818092  1629697 
  605000   0.99851147   -2.4409059   -2.4409059   -1.2600128  0.075238562   -2.4409059    1.1808931  1629670 
  606000   0.99983752   -2.4422784   -2.4422784   -1.2597974  0.072544276   -2.4422784     1.182481  1629643 
  607000    0.9990029   -2.4410383   -2.4410383   -1.2595248  0.072269636   -2.4410383    1.1815135  1629616 
  608000   0.99946709   -2.4416404   -2.4416404   -1.2595583  0.072912248   -2.4416404    1.1820821  1629589 
  609000   0.99923078   -2.4408648   -2.4408648   -1.2590426  0.071400047   -2.4408648    1.1818221  1629562 
  610000   0.99898594   -2.4404735   -2.4404735   -1.2589214  0.076407329   -2.4404735    1.1815521  1629535 
  611000   0.99895139   -2.4412103   -2.4412103   -1.2596795  0.068436901   -2.4412103    1.1815308  1629508 
  612000   0.99875547   -2.4409311   -2.4409311   -1.2596124  0.067451132   -2.4409311    1.1813187  1629481 
  613000   0.99946776   -2.4417104   -2.4417104   -1.2595296  0.071035605   -2.4417104    1.1821808  1629454 
  614000   0.99844561    -2.440692    -2.440692   -1.2597007  0.073935121    -2.440692    1.1809913  1629427 
  615000   0.99849322    -2.441077    -2.441077   -1.2600098  0.068318747    -2.441077    1.1810672  1629400 
  616000   0.99795313   -2.4401917   -2.4401917   -1.2597438   0.07470241   -2.4401917    1.1804479  1629373 
  617000   0.99801698    -2.439867    -2.439867    -1.259324   0.06612232    -2.439867     1.180543  1629346 
  618000   0.99800511    -2.440102    -2.440102   -1.2595535  0.067181748    -2.440102    1.1805485  1629319 
  619000   0.99860999   -2.4407628   -2.4407628   -1.2594791  0.070946648   -2.4407628    1.1812836  1629292 
  620000   0.99781411   -2.4395722   -2.4395722   -1.2592105  0.071226388   -2.4395722    1.1803617  1629265 
  621000   0.99785171   -2.4395461   -2.4395461   -1.2591203  0.071090203   -2.4395461    1.1804258  1629238 
  622000   0.99743208   -2.4395082   -2.4395082   -1.2595593  0.069979895   -2.4395082    1.1799489  1629211 
  623000   0.99832212   -2.4402771   -2.4402771   -1.2592557  0.070439496   -2.4402771    1.1810214  1629184 
  624000   0.99820973   -2.4404314   -2.4404314   -1.2595234  0.068212806   -2.4404314     1.180908  1629157 
  625000   0.99836555   -2.4402757   -2.4402757   -1.2591638  0.066949801   -2.4402757    1.1811119  1629130 
  626000   0.99816162   -2.4395304   -2.4395304   -1.2586402  0.067845157   -2.4395304    1.1808902  1629103 
  627000   0.99723301   -2.4380386   -2.4380386   -1.2582274  0.073250215   -2.4380386    1.1798112  1629076 
  628000   0.99737539   -2.4383899   -2.4383899   -1.2583907  0.071088172   -2.4383899    1.1799992  1629049 
  629000   0.99718221   -2.4381809   -2.4381809     -1.25839  0.073678192   -2.4381809    1.1797909  1629021 
  630000   0.99756556   -2.4385177   -2.4385177   -1.2582536  0.069770739   -2.4385177     1.180264  1628994 
  631000   0.99708607   -2.4383651   -2.4383651   -1.2586489  0.069486072   -2.4383651    1.1797163  1628967 
  632000   0.99671794   -2.4385991   -2.4385991   -1.2592988  0.067019518   -2.4385991    1.1793003  1628940 
  633000   0.99701026   -2.4378409   -2.4378409   -1.2581752  0.065625481   -2.4378409    1.1796657  1628913 
  634000   0.99670171   -2.4375354   -2.4375354   -1.2582153  0.069579826   -2.4375354    1.1793202  1628886 
  635000   0.99730568     -2.43812     -2.43812   -1.2580657  0.067807155     -2.43812    1.1800543  1628859 
  636000   0.99704015   -2.4379459   -2.4379459   -1.2581862  0.068167849   -2.4379459    1.1797597  1628832 
  637000    0.9972746   -2.4382144   -2.4382144   -1.2581578  0.069902571   -2.4382144    1.1800567  1628805 
  638000   0.99716767    -2.437991    -2.437991   -1.2580412  0.067272483    -2.437991    1.1799497  1628778 
  639000   0.99659103   -2.4369892   -2.4369892   -1.2577023  0.071112315   -2.4369892    1.1792869  1628751 
  640000    0.9973754   -2.4377048   -2.4377048   -1.2574701  0.070414387   -2.4377048    1.1802347  1628724 
  641000   0.99706384   -2.4370314   -2.4370314   -1.2571459  0.072667546   -2.4370314    1.1798855  1628697 
  642000   0.99764153   -2.4379957   -2.4379957    -1.257407  0.069727018   -2.4379957    1.1805887  1628670 
  643000   0.99772594   -2.4376356   -2.4376356   -1.2569275  0.069127615   -2.4376356    1.1807082  1628643 
  644000   0.99900447   -2.4393937   -2.4393937   -1.2571529  0.067891653   -2.4393937    1.1822408  1628616 
  645000   0.99697575   -2.4369345   -2.4369345    -1.257075  0.070278791   -2.4369345    1.1798595  1628589 
  646000   0.99768338   -2.4378943   -2.4378943   -1.2571778  0.069360465   -2.4378943    1.1807165  1628562 
  647000   0.99774855   -2.4378568   -2.4378568   -1.2570435  0.069991984   -2.4378568    1.1808132  1628535 
  648000   0.99697107    -2.437548    -2.437548   -1.2576353  0.071404994    -2.437548    1.1799127  1628508 
  649000    0.9975356   -2.4384557   -2.4384557   -1.2578553  0.070726981   -2.4384557    1.1806004  1628481 
  650000   0.99774381   -2.4387401   -2.4387401   -1.2578737  0.067708972   -2.4387401    1.1808664  1628454 
  651000   0.99718665   -2.4378293   -2.4378293   -1.2576028  0.073917836   -2.4378293    1.1802265  1628427 
  652000    0.9977931   -2.4387932   -2.4387932   -1.2578293   0.06967387   -2.4387932    1.1809639  1628400 
  653000   0.99778051   -2.4384299   -2.4384299   -1.2574613  0.071508184   -2.4384299    1.1809686  1628373 
  654000   0.99784346   -2.4388463   -2.4388463   -1.2577837  0.068638969   -2.4388463    1.1810626  1628346 
  655000   0.99792033   -2.4388495   -2.4388495   -1.2576762  0.072446682   -2.4388495    1.1811732  1628319 
[...]
29832000   0.36865081   -1.2170041   -1.2170041  -0.37090373  0.054701537   -1.2170041   0.84610035   839751 
29833000   0.36828756   -1.2163568   -1.2163568  -0.37106295  0.053255819   -1.2163568   0.84529382   839724 
29834000   0.36841685   -1.2161698   -1.2161698  -0.37055207  0.054461818   -1.2161698   0.84561775   839697 
29835000    0.3689787   -1.2175081   -1.2175081  -0.37057348  0.053240874   -1.2175081   0.84693458   839670 
29836000   0.36903515   -1.2182705   -1.2182705  -0.37117913  0.053976539   -1.2182705   0.84709138   839643 
29837000   0.36847127   -1.2167263   -1.2167263  -0.37090201  0.055323332   -1.2167263   0.84582424   839616 
29838000   0.36867815   -1.2173112   -1.2173112  -0.37098483  0.056788429   -1.2173112   0.84632635   839589 
29839000   0.36856794   -1.2170612   -1.2170612  -0.37096062  0.056011081   -1.2170612   0.84610056   839562 
29840000   0.36953453   -1.2192651   -1.2192651  -0.37091828  0.057786432   -1.2192651   0.84834681   839535 
29841000   0.36828384   -1.2168463   -1.2168463  -0.37134353   0.05540045   -1.2168463   0.84550276   839508 
29842000   0.36828894   -1.2167784   -1.2167784  -0.37123674  0.054680017   -1.2167784   0.84554166   839481 
29843000   0.36865355   -1.2173209   -1.2173209  -0.37091488   0.05598058   -1.2173209   0.84640598   839454 
29844000   0.36823719   -1.2163264   -1.2163264   -0.3708492   0.05475236   -1.2163264   0.84547724   839427 
29845000   0.36816313    -1.216006    -1.216006  -0.37067155  0.054263875    -1.216006    0.8453344   839400 
29846000   0.36769431   -1.2150072   -1.2150072  -0.37072211  0.056896379   -1.2150072   0.84428509   839373 
29847000    0.3684503   -1.2168198   -1.2168198  -0.37077164  0.055265951   -1.2168198   0.84604818   839346 
29848000   0.36832138   -1.2163159   -1.2163159  -0.37053654  0.056530719   -1.2163159   0.84577936   839319 
29849000   0.36788342   -1.2149432   -1.2149432  -0.37014236  0.059213968   -1.2149432   0.84480084   839292 
29850000    0.3683122   -1.2159222   -1.2159222  -0.37010953   0.05395317   -1.2159222   0.84581269   839265 
29851000   0.36839208   -1.2161105   -1.2161105  -0.37008715  0.052737904   -1.2161105   0.84602337   839238 
29852000   0.36793257    -1.215247    -1.215247  -0.37025179  0.054880974    -1.215247   0.84499526   839211 
29853000   0.36796351   -1.2152302   -1.2152302   -0.3701367  0.052543545   -1.2152302    0.8450935   839184 
29854000   0.36829012   -1.2161013   -1.2161013  -0.37023045  0.055514304   -1.2161013   0.84587084   839157 
29855000    0.3677858   -1.2152804   -1.2152804  -0.37054067  0.056709864   -1.2152804   0.84473973   839130 
29856000   0.36792659   -1.2157618   -1.2157618   -0.3706715  0.055029561   -1.2157618   0.84509028   839103 
29857000   0.36765584   -1.2157152   -1.2157152  -0.37121961  0.054277878   -1.2157152   0.84449556   839076 
29858000   0.36753105    -1.214846    -1.214846  -0.37060984   0.05376873    -1.214846   0.84423611   839049 
29859000   0.36789993   -1.2160622   -1.2160622  -0.37095057  0.056324292   -1.2160622   0.84511163   839021 
29860000   0.36761354   -1.2154148   -1.2154148   -0.3709339  0.055809776   -1.2154148   0.84448094   838994 
29861000   0.36763898   -1.2159848   -1.2159848  -0.37141819  0.053964394   -1.2159848   0.84456656   838967 
29862000   0.36818232   -1.2168655   -1.2168655   -0.3710235  0.054222565   -1.2168655   0.84584199   838940 
29863000   0.36788949    -1.214924    -1.214924  -0.36972758  0.055812693    -1.214924   0.84519646   838913 
29864000   0.36787448   -1.2148653   -1.2148653  -0.36967612   0.05364277   -1.2148653   0.84518918   838886 
29865000   0.36764201   -1.2138812   -1.2138812  -0.36919898  0.055889484   -1.2138812   0.84468226   838859 
29866000   0.36809504   -1.2146614   -1.2146614  -0.36891109  0.058025571   -1.2146614   0.84575034   838832 
29867000   0.36750437    -1.214013    -1.214013  -0.36959264   0.05533436    -1.214013   0.84442038   838805 
29868000   0.36766921   -1.2150508   -1.2150508  -0.37022445  0.054639479   -1.2150508   0.84482632   838778 
29869000   0.36760432   -1.2143541   -1.2143541  -0.36964964  0.054979725   -1.2143541   0.84470442   838751 
29870000   0.36723269   -1.2138957   -1.2138957  -0.37001812  0.054894226   -1.2138957   0.84387762   838724 
29871000    0.3676039   -1.2140649   -1.2140649  -0.36930704  0.054320853   -1.2140649   0.84475784   838697 
29872000   0.36747059   -1.2148313   -1.2148313  -0.37035263  0.053682807   -1.2148313   0.84447868   838670 
29873000   0.36746292   -1.2151518   -1.2151518  -0.37066357  0.058061875   -1.2151518   0.84448824   838643 
29874000   0.36787655   -1.2159557   -1.2159557  -0.37048963  0.054605653   -1.2159557   0.84546605   838616 
29875000   0.36769283   -1.2148054   -1.2148054  -0.36973434  0.054381257   -1.2148054   0.84507102   838589 
29876000   0.36740722   -1.2135169   -1.2135169  -0.36907512   0.05602154   -1.2135169   0.84444178   838562 
29877000   0.36700217   -1.2123544   -1.2123544  -0.36881646  0.053268012   -1.2123544   0.84353798   838535 
29878000   0.36689569   -1.2128277   -1.2128277  -0.36950727  0.054409297   -1.2128277    0.8433204   838508 
29879000   0.36666974    -1.213129    -1.213129  -0.37030086  0.057543376    -1.213129   0.84282818   838481 
29880000   0.36727929   -1.2138421   -1.2138421  -0.36958562  0.053285583   -1.2138421   0.84425648   838454 
29881000    0.3669736   -1.2127543   -1.2127543  -0.36917331  0.057800258   -1.2127543   0.84358097   838427 
29882000   0.36744492   -1.2135751   -1.2135751  -0.36888348  0.053964996   -1.2135751   0.84469161   838400 
29883000   0.36733976   -1.2133253   -1.2133253  -0.36884819  0.055920156   -1.2133253   0.84447707   838373 
29884000   0.36715577   -1.2129705   -1.2129705   -0.3688892  0.055214672   -1.2129705   0.84408128   838346 
29885000   0.36717704    -1.213099    -1.213099  -0.36894165  0.052870406    -1.213099   0.84415737   838319 
29886000   0.36738369   -1.2136737   -1.2136737  -0.36901402   0.05537807   -1.2136737   0.84465968   838292 
29887000   0.36705842    -1.212905    -1.212905    -0.368966  0.055760536    -1.212905   0.84393901   838265 
29888000   0.36695742   -1.2123289   -1.2123289  -0.36859498  0.054516284   -1.2123289   0.84373397   838238 
29889000   0.36663145   -1.2111357   -1.2111357  -0.36812402  0.053186886   -1.2111357   0.84301164   838211 
29890000   0.36688386   -1.2109783   -1.2109783  -0.36735912  0.053209176   -1.2109783   0.84361918   838184 
29891000   0.36685397    -1.210626    -1.210626  -0.36704832  0.054126801    -1.210626   0.84357764   838157 
29892000   0.36651614   -1.2101264   -1.2101264  -0.36729843  0.056999767   -1.2101264   0.84282795   838130 
29893000   0.36615129   -1.2093602   -1.2093602   -0.3673441  0.054710901   -1.2093602   0.84201606   838103 
29894000   0.36669412   -1.2108703   -1.2108703  -0.36757872  0.053937417   -1.2108703   0.84329156   838076 
29895000   0.36668708   -1.2106484   -1.2106484  -0.36734585  0.056923436   -1.2106484   0.84330254   838049 
29896000   0.36698884   -1.2107572   -1.2107572  -0.36673246  0.055375771   -1.2107572   0.84402473   838021 
29897000   0.36697253   -1.2109795   -1.2109795  -0.36696512  0.056634079   -1.2109795   0.84401441   837994 
29898000   0.36698654   -1.2114698   -1.2114698  -0.36739599   0.05375415   -1.2114698   0.84407382   837967 
29899000   0.36685841   -1.2105882   -1.2105882  -0.36678191  0.054115018   -1.2105882   0.84380629   837940 
29900000   0.36727272   -1.2118149   -1.2118149  -0.36702844  0.055113842   -1.2118149   0.84478648   837913 
29901000   0.36706319   -1.2105339   -1.2105339  -0.36620217  0.057721098   -1.2105339   0.84433172   837886 
29902000    0.3675782   -1.2120352   -1.2120352  -0.36649161  0.056530576   -1.2120352   0.84554362   837859 
29903000   0.36653445   -1.2095871   -1.2095871  -0.36641727  0.055039597   -1.2095871   0.84316984   837832 
29904000   0.36641919    -1.210658    -1.210658  -0.36772614  0.053946567    -1.210658   0.84293187   837805 
29905000   0.36630092    -1.210439    -1.210439  -0.36775211  0.052214859    -1.210439   0.84268694   837778 
29906000   0.36676611   -1.2113469   -1.2113469   -0.3675626   0.05536594   -1.2113469   0.84378433   837751 
29907000   0.36645798   -1.2107398   -1.2107398  -0.36763718  0.054363455   -1.2107398   0.84310261   837724 
29908000    0.3665911   -1.2104959   -1.2104959  -0.36705981  0.056500741   -1.2104959   0.84343606   837697 
29909000   0.36700782   -1.2125672   -1.2125672  -0.36814515  0.055163424   -1.2125672   0.84442204   837670 
29910000   0.36697767   -1.2119244   -1.2119244  -0.36754453  0.057389764   -1.2119244    0.8443799   837643 
29911000   0.36673545   -1.2121274   -1.2121274  -0.36827766  0.055461324   -1.2121274   0.84384976   837616 
29912000   0.36679152   -1.2123897   -1.2123897  -0.36838371  0.052936722   -1.2123897   0.84400599   837589 
29913000   0.36641579   -1.2111814   -1.2111814  -0.36801285  0.054133876   -1.2111814   0.84316859   837562 
29914000     0.366315   -1.2111454   -1.2111454  -0.36818159  0.052630377   -1.2111454   0.84296384   837535 
29915000   0.36678147    -1.212484    -1.212484  -0.36841955  0.054197576    -1.212484   0.84406449   837508 
29916000   0.36553797   -1.2099812   -1.2099812  -0.36875119  0.057566401   -1.2099812   0.84122997   837481 
29917000   0.36658363   -1.2118875   -1.2118875  -0.36822394  0.053204032   -1.2118875   0.84366361   837454 
29918000   0.36694406   -1.2117498   -1.2117498   -0.3672295  0.056124994   -1.2117498   0.84452033   837427 
29919000    0.3667204   -1.2111419   -1.2111419  -0.36710913  0.054877719   -1.2111419    0.8440328   837400 
29920000   0.36663591   -1.2107029   -1.2107029  -0.36683739   0.05204585   -1.2107029   0.84386554   837373 
29921000   0.36707692   -1.2118318   -1.2118318  -0.36692401  0.054740613   -1.2118318   0.84490783   837346 
29922000   0.36640199   -1.2104309   -1.2104309  -0.36704938  0.055314267   -1.2104309   0.84338153   837319 
29923000   0.36634948   -1.2097854   -1.2097854  -0.36649751   0.05337125   -1.2097854   0.84328787   837292 
29924000   0.36674088   -1.2106366   -1.2106366  -0.36642062  0.053079904   -1.2106366   0.84421602   837265 
29925000    0.3662185   -1.2084847   -1.2084847  -0.36544394  0.055516161   -1.2084847   0.84304074   837238 
29926000   0.36652241   -1.2088646   -1.2088646  -0.36509704  0.058479982   -1.2088646   0.84376753   837211 
29927000   0.36605586    -1.208694    -1.208694  -0.36597331  0.055459115    -1.208694   0.84272069   837184 
29928000    0.3662296   -1.2093763   -1.2093763  -0.36622849  0.055644336   -1.2093763   0.84314786   837157 
29929000   0.36612622   -1.2092397   -1.2092397   -0.3663027  0.056506397   -1.2092397   0.84293703   837130 
29930000   0.36660756   -1.2105216   -1.2105216   -0.3664491  0.055161468   -1.2105216   0.84407246   837103 
29931000   0.36609343   -1.2098062   -1.2098062  -0.36689028  0.055389965   -1.2098062   0.84291592   837076 
29932000   0.36656021   -1.2107551   -1.2107551  -0.36673722  0.056199982   -1.2107551   0.84401787   837049 
29933000   0.36607157   -1.2108015   -1.2108015  -0.36788053  0.054297287   -1.2108015   0.84292096   837021 
29934000   0.36598168   -1.2102805   -1.2102805  -0.36753932  0.054001583   -1.2102805   0.84274116   836994 
29935000   0.36618124   -1.2101339   -1.2101339  -0.36690599  0.055200979   -1.2101339   0.84322789   836967 
29936000   0.36574893   -1.2090814   -1.2090814  -0.36682189  0.054081929   -1.2090814   0.84225955   836940 
29937000   0.36624042   -1.2103273   -1.2103273  -0.36690871  0.053888735   -1.2103273   0.84341859   836913 
29938000   0.36586826   -1.2100048   -1.2100048  -0.36741612   0.05235529   -1.2100048   0.84258872   836886 
29939000   0.36593754   -1.2097367   -1.2097367  -0.36696121  0.054812153   -1.2097367   0.84277547   836859 
29940000   0.36629398   -1.2107328   -1.2107328  -0.36710923  0.058219798   -1.2107328   0.84362358   836832 
29941000   0.36613187   -1.2108433   -1.2108433   -0.3675659  0.053255844   -1.2108433   0.84327743   836805 
29942000   0.36605848   -1.2098553   -1.2098553  -0.36671973    0.0563397   -1.2098553   0.84313559   836778 
29943000   0.36664744   -1.2111478   -1.2111478   -0.3666284  0.054868311   -1.2111478   0.84451938   836751 
29944000   0.36571149   -1.2090419   -1.2090419  -0.36665115  0.056400792   -1.2090419   0.84239074   836724 
29945000   0.36615429   -1.2100228   -1.2100228  -0.36658483  0.055815083   -1.2100228   0.84343793   836697 
29946000   0.36649141   -1.2099344   -1.2099344  -0.36569265  0.054751503   -1.2099344   0.84424173   836670 
29947000   0.36596312   -1.2088078   -1.2088078  -0.36575584  0.051777261   -1.2088078   0.84305198   836643 
29948000    0.3661465   -1.2086905   -1.2086905  -0.36518885  0.056482935   -1.2086905   0.84350163   836616 
29949000   0.36602647   -1.2077116   -1.2077116  -0.36445931  0.054683638   -1.2077116   0.84325233   836589 
29950000   0.36587241   -1.2075567   -1.2075567  -0.36463211  0.055846773   -1.2075567   0.84292461   836562 
29951000   0.36570547   -1.2076874   -1.2076874  -0.36512024  0.054424864   -1.2076874    0.8425672   836535 
29952000   0.36623043   -1.2080649   -1.2080649  -0.36426101  0.055200651   -1.2080649   0.84380392   836508 
29953000   0.36618014   -1.2086677   -1.2086677  -0.36495246   0.05553625   -1.2086677   0.84371527   836481 
29954000   0.36557444   -1.2077773   -1.2077773  -0.36543044  0.056111513   -1.2077773   0.84234688   836454 
29955000   0.36630572   -1.2086633   -1.2086633  -0.36460422  0.055840258   -1.2086633   0.84405912   836427 
29956000   0.36647955   -1.2085345   -1.2085345  -0.36404754  0.053670955   -1.2085345   0.84448692   836400 
29957000    0.3663584   -1.2074651   -1.2074651  -0.36323007   0.05767571   -1.2074651     0.844235   836373 
29958000   0.36587777   -1.2067664   -1.2067664  -0.36361178  0.054576953   -1.2067664   0.84315466   836346 
29959000    0.3658775   -1.2068642   -1.2068642  -0.36368297  0.056254886   -1.2068642   0.84318126   836319 
29960000   0.36579986   -1.2067516   -1.2067516  -0.36372202  0.056169011   -1.2067516   0.84302956   836292 
29961000   0.36607533   -1.2072529   -1.2072529  -0.36356126  0.053759609   -1.2072529   0.84369164   836265 
29962000   0.36639108   -1.2089947   -1.2089947  -0.36454805  0.056571927   -1.2089947   0.84444662   836238 
29963000   0.36596076   -1.2077179   -1.2077179  -0.36423582  0.055558711   -1.2077179   0.84348207   836211 
29964000   0.36615322   -1.2076569   -1.2076569  -0.36370396  0.053066016   -1.2076569   0.84395291   836184 
29965000   0.36566953   -1.2058927   -1.2058927  -0.36302744    0.0544902   -1.2058927   0.84286525   836157 
29966000   0.36539703   -1.2053725   -1.2053725  -0.36310816  0.056759496   -1.2053725   0.84226435   836130 
29967000   0.36620576   -1.2063607   -1.2063607  -0.36220494  0.053203702   -1.2063607   0.84415579   836103 
29968000   0.36542622   -1.2049597   -1.2049597  -0.36257369  0.054521276   -1.2049597   0.84238604   836076 
29969000   0.36631722   -1.2060732   -1.2060732  -0.36160598  0.054350124   -1.2060732   0.84446725   836049 
29970000   0.36674612   -1.2076114   -1.2076114  -0.36212708  0.052855931   -1.2076114   0.84548431   836021 
29971000   0.36616739   -1.2062165   -1.2062165  -0.36203913  0.056516442   -1.2062165   0.84417739   835994 
29972000   0.36578491   -1.2052202   -1.2052202  -0.36189739  0.054187387   -1.2052202   0.84332284   835967 
29973000    0.3659532   -1.2054878   -1.2054878  -0.36174971  0.055696774   -1.2054878   0.84373808   835940 
29974000   0.36583034    -1.205444    -1.205444  -0.36196193  0.056683129    -1.205444   0.84348207   835913 
29975000   0.36555984   -1.2052957   -1.2052957  -0.36241014  0.054449104   -1.2052957    0.8428856   835886 
29976000   0.36518438   -1.2041598   -1.2041598  -0.36211267  0.055342643   -1.2041598   0.84204709   835859 
29977000   0.36536865   -1.2049359   -1.2049359  -0.36243672  0.055393909   -1.2049359    0.8424992   835832 
29978000   0.36522911   -1.2049876   -1.2049876  -0.36278302  0.055885148   -1.2049876   0.84220463   835805 
29979000   0.36575061   -1.2066672   -1.2066672  -0.36323277  0.054088178   -1.2066672   0.84343443   835778 
29980000   0.36562909   -1.2064661   -1.2064661   -0.3632846  0.055952918   -1.2064661   0.84318145   835751 
29981000   0.36571714    -1.206991    -1.206991  -0.36357921  0.058312689    -1.206991   0.84341176   835724 
29982000    0.3656338   -1.2063088   -1.2063088  -0.36306198  0.054192232   -1.2063088    0.8432468   835697 
29983000   0.36614084   -1.2077306   -1.2077306   -0.3632872  0.056842263   -1.2077306   0.84444344   835670 
29984000   0.36503083   -1.2047675   -1.2047675  -0.36285691  0.057293556   -1.2047675    0.8419106   835643 
29985000   0.36499878    -1.203871    -1.203871  -0.36200713  0.055787451    -1.203871   0.84186387   835616 
29986000   0.36481993   -1.2036812   -1.2036812  -0.36220268  0.056235246   -1.2036812   0.84147856   835589 
29987000   0.36498599   -1.2038492   -1.2038492  -0.36196046  0.053655499   -1.2038492   0.84188878   835562 
29988000    0.3646966   -1.2038188   -1.2038188  -0.36257037  0.056714108   -1.2038188   0.84124845   835535 
29989000   0.36519845   -1.2047078   -1.2047078   -0.3622745  0.054275117   -1.2047078   0.84243329   835508 
29990000   0.36528087    -1.204233    -1.204233  -0.36158236  0.056182144    -1.204233   0.84265065   835481 
29991000   0.36521462   -1.2044272   -1.2044272  -0.36190213  0.054682251   -1.2044272   0.84252505   835454 
29992000   0.36518546    -1.204523    -1.204523  -0.36203803  0.055561569    -1.204523   0.84248499   835427 
29993000   0.36501186   -1.2043224   -1.2043224  -0.36221063  0.058632233   -1.2043224   0.84211172   835400 
29994000    0.3654778   -1.2061775   -1.2061775  -0.36296359  0.054181945   -1.2061775   0.84321393   835373 
29995000   0.36533002   -1.2067392   -1.2067392  -0.36383893  0.056791579   -1.2067392   0.84290024   835346 
29996000   0.36509738   -1.2058628   -1.2058628  -0.36347206  0.053064651   -1.2058628   0.84239071   835319 
29997000   0.36482451   -1.2047353   -1.2047353  -0.36294695  0.055835228   -1.2047353   0.84178831   835292 
29998000   0.36478306   -1.2038419   -1.2038419    -0.362122  0.057618383   -1.2038419   0.84171988   835265 
29999000   0.36492445   -1.2042038   -1.2042038  -0.36213041  0.057082699   -1.2042038   0.84207335   835238 
30000000   0.36507366   -1.2040757   -1.2040757  -0.36163077  0.055140234   -1.2040757   0.84244488   835211 
Loop time of 48402.5 on 768 procs for 30000000 steps with 835211 atoms

Performance: 267755.007 tau/day, 619.803 timesteps/s
86.2% CPU use with 768 MPI tasks x 1 OpenMP threads

MPI task timing breakdown:
Section |  min time  |  avg time  |  max time  |%varavg|  %CPU | %total
-----------------------------------------------------------------------
Pair    | 2380.6     | 9222       | 14487      |2798.2 |  89.6 | 19.05
Bond    | 18.842     | 19.944     | 21.163     |   8.2 | 100.0 |  0.04
Neigh   | 2994.5     | 9348.7     | 12179      |1906.3 |  98.1 | 19.31
Comm    | 9759.3     | 15033      | 22254      |1995.0 |  83.5 | 31.06
Output  | 3011.6     | 3022.8     | 3031.8     |  13.8 |  72.2 |  6.25
Modify  | 7910.9     | 10947      | 19787      |2264.6 |  81.6 | 22.62
Other   |            | 808.4      |            |       |       |  1.67

Nlocal:        1087.51 ave        1781 max         400 min
Histogram: 1 6 26 45 320 297 42 16 10 5
Nghost:        3550.89 ave        6010 max         886 min
Histogram: 107 46 42 44 64 82 124 161 67 31
Neighs:        11886.8 ave       30763 max        3030 min
Histogram: 184 111 103 114 81 65 55 32 14 9

Total # of neighbors = 9129077
Ave neighs/atom = 10.930264
Ave special neighs/atom = 0.0000000
Neighbor list builds = 3262701
Dangerous builds = 2422701

Total wall time: 13:26:55
