LAMMPS (24 Dec 2020)
OMP_NUM_THREADS environment is not set. Defaulting to 1 thread. (src/comm.cpp:94)
  using 1 OpenMP thread(s) per MPI task
#Read the equilibrated lj fluid and add nanocubes

units           lj
atom_style      full
atom_modify     map array first cubes
dimension       3
boundary        p p f
pair_style      lj/cut/opt 2.5

variable        sigma           equal 1.0
variable        epsilon         equal 1.0
read_restart	restart.dat.3000000
Reading restart file ...
  restart file = 24 Dec 2020, LAMMPS = 24 Dec 2020
WARNING: Restart file used different # of processors: 144 vs. 240 (src/read_restart.cpp:697)
  restoring atom style full from restart
  orthogonal box = (0.0000000 0.0000000 0.0000000) to (100.00000 100.00000 200.00000)
  4 by 5 by 12 MPI processor grid
  restoring pair style lj/cut/opt from restart
  878832 atoms
Finding 1-2 1-3 1-4 neighbors ...
  special bond factors lj:    0        0        0       
  special bond factors coul:  0        0        0       
     0 = max # of 1-2 neighbors
     0 = max # of 1-3 neighbors
     0 = max # of 1-4 neighbors
     1 = max # of special neighbors
  special bonds CPU = 1.923 seconds
  read_restart CPU = 2.478 seconds

group		solvent type 1
878832 atoms in group solvent

read_data	data_half.cubes group cubes add append
Reading data file ...
  orthogonal box = (0.0000000 0.0000000 0.0000000) to (100.00000 100.00000 200.00000)
  4 by 5 by 12 MPI processor grid
  reading atoms ...
  285750 atoms
  reading velocities ...
  285750 velocities
Finding 1-2 1-3 1-4 neighbors ...
  special bond factors lj:    0        0        0       
  special bond factors coul:  0        0        0       
     0 = max # of 1-2 neighbors
     0 = max # of 1-3 neighbors
     0 = max # of 1-4 neighbors
     1 = max # of special neighbors
  special bonds CPU = 0.005 seconds
  read_data CPU = 0.671 seconds

group 		hull  type 2
111500 atoms in group hull
group 		dummy type 3
174250 atoms in group dummy

neighbor      0.4 bin
neigh_modify  exclude molecule/intra cubes


pair_modify   shift yes

pair_coeff    1 1 1.0 1.0 #solvent
pair_coeff    2 2 1.0 1.0 1.12 #np
pair_coeff    3 3 0.0 0.0 0.0 #dummy
pair_coeff    2 3 0.0 0.0 0.0 #np dummy
pair_coeff    1 2 ${sol} 1.0 #np solvent
pair_coeff    1 2 1.0 1.0 
pair_coeff    1 3 0.0 0.0 2.5 #dummy solvent

# delete solvent where the cubes are
delete_atoms  overlap 1.0 solvent cubes
System init for delete_atoms ...
Neighbor list info ...
  update every 1 steps, delay 10 steps, check yes
  max neighbors/atom: 2000, page size: 100000
  master list distance cutoff = 2.9
  ghost atom cutoff = 2.9
  binsize = 1.45, bins = 69 69 138
  2 neighbor lists, perpetual/occasional/extra = 1 1 0
  (1) command delete_atoms, occasional
      attributes: full, newton on
      pair build: full/bin
      stencil: full/bin/3d
      bin: standard
  (2) pair lj/cut/opt, perpetual
      attributes: half, newton on
      pair build: half/bin/newton
      stencil: half/bin/3d/newton
      bin: standard
WARNING: Delete_atoms cutoff > minimum neighbor cutoff (src/delete_atoms.cpp:307)
WARNING: Ignoring 'compress yes' for molecular system (src/delete_atoms.cpp:125)
Deleted 206602 atoms, new total = 957980



pair_coeff    1 1 1.0 1.0 #solvent
pair_coeff    2 2 1.0 1.0 1.12 #np
pair_coeff    3 3 0.0 0.0 0.0 #dummy
pair_coeff    2 3 0.0 0.0 0.0 #np dummy
pair_coeff    1 2 ${sol} 1.0 #np solvent
pair_coeff    1 2 1.0 1.0 
pair_coeff    1 3 0.0 0.0 0.0 #dummy solvent


comm_modify   mode multi cutoff/multi 1 2.5 cutoff/multi 2 2.5 cutoff/multi 3 6.95

reset_timestep 	0

balance 	1.05 shift z 10 1.05
Balancing ...
Neighbor list info ...
  update every 1 steps, delay 10 steps, check yes
  max neighbors/atom: 2000, page size: 100000
  master list distance cutoff = 2.9
  ghost atom cutoff = 6.95
  binsize = 1.45, bins = 69 69 138
  1 neighbor lists, perpetual/occasional/extra = 1 0 0
  (1) pair lj/cut/opt, perpetual
      attributes: half, newton on
      pair build: half/bin/newton
      stencil: half/bin/3d/newton
      bin: standard
 rebalancing time: 0.010 seconds
  iteration count = 4
  initial/final maximal load/proc = 6240.0000 5931.0000
  initial/final imbalance factor  = 1.5632894 1.4858765
  x cuts: 0.0000000 0.25000000 0.50000000 0.75000000 1.0000000
  y cuts: 0.0000000 0.20000000 0.40000000 0.60000000 0.80000000 1.0000000
  z cuts: 0.0000000 0.067708333 0.13020833 0.19270833 0.25520833 0.32291667 0.36458333 0.42708333 0.49479167 0.54687500 0.63020833 0.68229167 1.0000000

####################### WALLS ###########################

variable       epsilonWall equal 2*${epsilon}
variable       epsilonWall equal 2*1
variable       repulsive   equal   0.7147*${sigma}
variable       repulsive   equal   0.7147*1
variable       full	   equal   3*${sigma}
variable       full	   equal   3*1
region         lowWall block EDGE EDGE EDGE EDGE EDGE 2

fix            topWall all wall/lj93 zhi EDGE 	       ${epsilonWall} ${sigma} ${repulsive} units box
fix            topWall all wall/lj93 zhi EDGE 	       2 ${sigma} ${repulsive} units box
fix            topWall all wall/lj93 zhi EDGE 	       2 1 ${repulsive} units box
fix            topWall all wall/lj93 zhi EDGE 	       2 1 0.7147 units box
fix            lowSol solvent wall/lj93 zlo EDGE                ${epsilonWall} ${sigma} ${full} units box
fix            lowSol solvent wall/lj93 zlo EDGE                2 ${sigma} ${full} units box
fix            lowSol solvent wall/lj93 zlo EDGE                2 1 ${full} units box
fix            lowSol solvent wall/lj93 zlo EDGE                2 1 3 units box
fix 	       lowCub cubes wall/lj93 zlo EDGE                ${epsilonWall} ${sigma} ${repulsive} units box
fix 	       lowCub cubes wall/lj93 zlo EDGE                2 ${sigma} ${repulsive} units box
fix 	       lowCub cubes wall/lj93 zlo EDGE                2 1 ${repulsive} units box
fix 	       lowCub cubes wall/lj93 zlo EDGE                2 1 0.7147 units box


###################### COMPUTES ##########################

compute        bin1 solvent chunk/atom bin/1d z lower 1.0 units box


######################  FIXES ############################


fix             peclet solvent ave/chunk 10 10 10000 bin1 density/number norm                  none ave one file density.profile

fix              temp solvent ave/chunk 10 10 10000 bin1 temp norm                  none ave one file temp.profile

fix             1 cubes rigid/nve/small molecule
  create bodies CPU = 0.004 seconds
  250 rigid bodies with 285750 atoms
  6.9282032 = max distance from body owner to body atom

fix             2 solvent nve# temp ${temp} ${temp} 10


## Thermostat
region          regthermo block EDGE EDGE EDGE EDGE 0 15
group           thermo dynamic solvent region regthermo every 1000
dynamic group thermo defined
fix             3 thermo langevin ${temp} ${temp} 10 156453
fix             3 thermo langevin 1.0 ${temp} 10 156453
fix             3 thermo langevin 1.0 1.0 10 156453


#### Load balancing

fix             bal all balance 1000 1.05 shift z 10 1.05

############### Diagnostics and computes ###################

compute        	com cubes          rigid/local   1 mol x y z
compute        	quat cubes         rigid/local   1 mol quatw quati quatj quatk

compute 	cc2 cubes 	   chunk/atom 	 molecule
compute 	msd cubes 	   msd/chunk 	 cc2

fix 		msd all ave/time  1 1 10000 c_msd[*] file dump.msd ave one mode vector

dump            1 all custom 500000 dump.lammpstrj id mol type x y z
dump		cubetrj hull custom 500000 cubes.lammpstrj id mol type x y z
dump            com cubes local 10000 dump.*.xyz c_com[*]
dump	        xyz hull xyz 100000 cubes.xyz
dump            quat cubes      local 10000 dump.*.quat c_quat[*]
#dump		mol cubes molfile 10000 mol.xyz xyz


dump            2 all image 10000 image.*.png type type
dump_modify     2 pad 8
dump		image cubes image 10000 image_cubes.*.png type type
dump_modify	image pad 8
dump            3 all movie 5000 movie.avi type type
dump		4 cubes movie 5000 movie_cubes.avi type type


thermo          1000
thermo_style    custom step temp epair evdwl etotal press pe ke atoms

restart         1000000 restart.dat
timestep        0.005
timer           full
New timer settings: style=full  mode=nosync  timeout=off

run 		4000000
Per MPI rank memory allocation (min/avg/max) = 13.70 | 20.84 | 31.07 Mbytes
Step Temp E_pair E_vdwl TotEng Press PotEng KinEng Atoms 
       0   0.99714199    -2.338564    -2.338564    -1.288219  -0.14709541    -2.338564     1.050345   957980 
    1000    1.0266252   -2.3723482   -2.3723482   -1.2909469    0.0646635   -2.3723482    1.0814013   957980 
    2000    1.0280597   -2.3764627   -2.3764627   -1.2935504  0.068867215   -2.3764627    1.0829124   957980 
    3000    1.0280319   -2.3786536   -2.3786536   -1.2957706  0.071974007   -2.3786536     1.082883   957980 
    4000    1.0272604   -2.3797654   -2.3797654   -1.2976949  0.072983994   -2.3797654    1.0820704   957980 
    5000    1.0255892    -2.379901    -2.379901    -1.299591  0.062266894    -2.379901      1.08031   957980 
    6000    1.0235315   -2.3803083   -2.3803083   -1.3021657  0.058063429   -2.3803083    1.0781426   957980 
    7000    1.0221077   -2.3794813   -2.3794813   -1.3028386  0.060476624   -2.3794813    1.0766427   957980 
    8000    1.0199648   -2.3796992   -2.3796992   -1.3053136  0.058972133   -2.3796992    1.0743855   957980 
    9000    1.0190533   -2.3799747   -2.3799747   -1.3065494  0.050416858   -2.3799747    1.0734254   957980 
   10000    1.0151612   -2.3779707   -2.3779707   -1.3086451   0.05988537   -2.3779707    1.0693256   957980 
   11000    1.0161905   -2.3793111   -2.3793111   -1.3089012  0.049269318   -2.3793111    1.0704099   957980 
   12000      1.01578   -2.3796107   -2.3796107   -1.3096333  0.051589432   -2.3796107    1.0699774   957980 
   13000    1.0141723   -2.3794938   -2.3794938   -1.3112098  0.053518307   -2.3794938     1.068284   957980 
   14000    1.0141242   -2.3803041   -2.3803041   -1.3120708  0.049336789   -2.3803041    1.0682333   957980 
   15000    1.0132373   -2.3801946   -2.3801946   -1.3128955  0.056197326   -2.3801946    1.0672991   957980 
   16000    1.0135266   -2.3806487   -2.3806487   -1.3130449  0.057950866   -2.3806487    1.0676038   957980 
   17000    1.0150359   -2.3820057   -2.3820057   -1.3128121  0.054165883   -2.3820057    1.0691936   957980 
   18000     1.012396   -2.3797879   -2.3797879    -1.313375    0.0511696   -2.3797879    1.0664129   957980 
   19000    1.0135256   -2.3812676   -2.3812676   -1.3136648   0.05161364   -2.3812676    1.0676028   957980 
   20000    1.0140309   -2.3823577   -2.3823577   -1.3142227   0.05288089   -2.3823577     1.068135   957980 
   21000    1.0135348   -2.3814815   -2.3814815    -1.313869  0.043257274   -2.3814815    1.0676125   957980 
   22000    1.0131936   -2.3814888   -2.3814888   -1.3142358  0.048997666   -2.3814888     1.067253   957980 
   23000    1.0147383   -2.3829038   -2.3829038   -1.3140236  0.056654947   -2.3829038    1.0688802   957980 
   24000    1.0137457   -2.3827695   -2.3827695   -1.3149349  0.050211234   -2.3827695    1.0678346   957980 
   25000    1.0115174    -2.381047    -2.381047   -1.3155596  0.048699997    -2.381047    1.0654874   957980 
   26000    1.0129168   -2.3826743   -2.3826743   -1.3157128  0.047415892   -2.3826743    1.0669615   957980 
   27000     1.012097   -2.3821384   -2.3821384   -1.3160405  0.043554767   -2.3821384     1.066098   957980 
   28000    1.0128559   -2.3830674   -2.3830674   -1.3161701  0.051860767   -2.3830674    1.0668973   957980 
   29000    1.0134103   -2.3831086   -2.3831086   -1.3156272  0.050393896   -2.3831086    1.0674814   957980 
   30000     1.012926   -2.3828102   -2.3828102   -1.3158391  0.059426072   -2.3828102    1.0669712   957980 
   31000    1.0131538   -2.3839988   -2.3839988   -1.3167878  0.049443066   -2.3839988    1.0672111   957980 
   32000    1.0140189   -2.3851536   -2.3851536   -1.3170312  0.047941269   -2.3851536    1.0681224   957980 
   33000    1.0132313   -2.3847692   -2.3847692   -1.3174764  0.057253866   -2.3847692    1.0672928   957980 
   34000    1.0149192   -2.3859035   -2.3859035   -1.3168328  0.056707533   -2.3859035    1.0690708   957980 
   35000    1.0153177   -2.3865183   -2.3865183   -1.3170278  0.054093983   -2.3865183    1.0694905   957980 
   36000    1.0166776   -2.3886178   -2.3886178   -1.3176948  0.054087735   -2.3886178     1.070923   957980 
   37000    1.0158103   -2.3885327   -2.3885327   -1.3185233  0.056480468   -2.3885327    1.0700093   957980 
   38000    1.0157658   -2.3884895   -2.3884895    -1.318527  0.059985644   -2.3884895    1.0699625   957980 
   39000    1.0160784   -2.3888137   -2.3888137    -1.318522  0.064882467   -2.3888137    1.0702917   957980 
   40000    1.0168582   -2.3897813   -2.3897813   -1.3186681  0.053766484   -2.3897813    1.0711132   957980 
   41000    1.0163658   -2.3899281   -2.3899281   -1.3193336   0.05826834   -2.3899281    1.0705945   957980 
   42000    1.0160917   -2.3901802   -2.3901802   -1.3198744  0.059895962   -2.3901802    1.0703057   957980 
   43000    1.0176807   -2.3917822   -2.3917822   -1.3198027  0.055887835   -2.3917822    1.0719795   957980 
   44000    1.0164992   -2.3910595   -2.3910595   -1.3203244  0.056040351   -2.3910595    1.0707351   957980 
   45000    1.0164017   -2.3917817   -2.3917817   -1.3211494  0.051962438   -2.3917817    1.0706323   957980 
   46000    1.0169512   -2.3926198   -2.3926198   -1.3214086  0.055301953   -2.3926198    1.0712111   957980 
   47000     1.017382   -2.3938704   -2.3938704   -1.3222055  0.058960526   -2.3938704    1.0716649   957980 
   48000    1.0180843   -2.3951558   -2.3951558    -1.322751  0.062159745   -2.3951558    1.0724047   957980 
   49000    1.0158398   -2.3943099   -2.3943099   -1.3242695  0.060179138   -2.3943099    1.0700405   957980 
   50000    1.0167599   -2.3955327   -2.3955327   -1.3245231  0.053645255   -2.3955327    1.0710096   957980 
   51000    1.0160436   -2.3952521   -2.3952521    -1.324997  0.060655747   -2.3952521    1.0702551   957980 
   52000    1.0173565   -2.3964455   -2.3964455   -1.3248074  0.058697555   -2.3964455     1.071638   957980 
   53000    1.0170769   -2.3971322   -2.3971322   -1.3257886  0.059859146   -2.3971322    1.0713436   957980 
   54000    1.0160679   -2.3966801   -2.3966801   -1.3263994  0.059659539   -2.3966801    1.0702807   957980 
   55000    1.0153202   -2.3970671   -2.3970671    -1.327574  0.054773513   -2.3970671    1.0694931   957980 
   56000     1.017391   -2.3987495   -2.3987495   -1.3270752  0.056602751   -2.3987495    1.0716744   957980 
   57000    1.0157486   -2.3978676   -2.3978676   -1.3279232  0.061614031   -2.3978676    1.0699444   957980 
   58000    1.0159946    -2.398338    -2.398338   -1.3281345  0.065557748    -2.398338    1.0702034   957980 
   59000    1.0159667   -2.3987022   -2.3987022    -1.328528  0.057795481   -2.3987022    1.0701741   957980 
   60000    1.0153708   -2.3980982   -2.3980982   -1.3285518  0.055780589   -2.3980982    1.0695464   957980 
   61000    1.0171204   -2.4001395   -2.4001395   -1.3287501  0.053644547   -2.4001395    1.0713894   957980 
   62000    1.0158955   -2.3993784   -2.3993784   -1.3292793  0.058215813   -2.3993784    1.0700991   957980 
   63000    1.0159782   -2.3998823   -2.3998823   -1.3296961  0.054797791   -2.3998823    1.0701862   957980 
   64000    1.0142069   -2.3985268   -2.3985268   -1.3302064   0.05856999   -2.3985268    1.0683204   957980 
   65000    1.0145287   -2.3985204   -2.3985204   -1.3298611  0.058478859   -2.3985204    1.0686594   957980 
   66000    1.0155797   -2.3998618   -2.3998618   -1.3300954  0.061756687   -2.3998618    1.0697665   957980 
   67000    1.0165455   -2.4007208   -2.4007208    -1.329937  0.061424815   -2.4007208    1.0707838   957980 
   68000    1.0149823   -2.3992613   -2.3992613   -1.3301241  0.048628528   -2.3992613    1.0691372   957980 
   69000    1.0159608   -2.4004185   -2.4004185   -1.3302506   0.05347522   -2.4004185    1.0701679   957980 
   70000    1.0155265    -2.399996    -2.399996   -1.3302856  0.061418425    -2.399996    1.0697104   957980 
   71000    1.0159088   -2.3999535   -2.3999535   -1.3298403  0.063760397   -2.3999535    1.0701132   957980 
   72000    1.0156827   -2.3999024   -2.3999024   -1.3300275  0.055450867   -2.3999024    1.0698749   957980 
   73000    1.0163644   -2.4002574   -2.4002574   -1.3296645   0.05541899   -2.4002574     1.070593   957980 
   74000     1.016851   -2.4009539   -2.4009539   -1.3298482  0.054563405   -2.4009539    1.0711056   957980 
   75000    1.0149643   -2.3996531   -2.3996531   -1.3305349  0.056592385   -2.3996531    1.0691183   957980 
   76000    1.0167559   -2.4017762   -2.4017762   -1.3307708  0.053252441   -2.4017762    1.0710054   957980 
   77000    1.0153779    -2.398904    -2.398904   -1.3293502  0.059366185    -2.398904    1.0695539   957980 
   78000     1.014932   -2.3988901   -2.3988901   -1.3298059  0.057893638   -2.3988901    1.0690842   957980 
   79000    1.0149161   -2.3997726   -2.3997726   -1.3307051  0.056765948   -2.3997726    1.0690675   957980 
   80000    1.0158113   -2.4005747   -2.4005747   -1.3305643  0.057567632   -2.4005747    1.0700104   957980 
   81000    1.0151713   -2.4001655   -2.4001655   -1.3308292  0.059388088   -2.4001655    1.0693363   957980 
   82000    1.0158864    -2.401573    -2.401573   -1.3314835  0.051730242    -2.401573    1.0700895   957980 
   83000    1.0138361   -2.3993526   -2.3993526   -1.3314228  0.067960993   -2.3993526    1.0679298   957980 
   84000    1.0148306   -2.4007636   -2.4007636   -1.3317862  0.052476375   -2.4007636    1.0689773   957980 
   85000    1.0152595    -2.401098    -2.401098   -1.3316688   0.05371123    -2.401098    1.0694292   957980 
   86000     1.014622   -2.4007167   -2.4007167   -1.3319591  0.056800042   -2.4007167    1.0687577   957980 
   87000    1.0156732   -2.4021192   -2.4021192   -1.3322543  0.055357232   -2.4021192     1.069865   957980 
   88000    1.0153067   -2.4016006   -2.4016006   -1.3321217  0.055671352   -2.4016006    1.0694789   957980 
   89000    1.0156902    -2.402363    -2.402363   -1.3324801  0.050767268    -2.402363    1.0698829   957980 
   90000    1.0150353   -2.4022841   -2.4022841   -1.3330911  0.057316495   -2.4022841    1.0691931   957980 
   91000    1.0151721   -2.4024777   -2.4024777   -1.3331405  0.056387749   -2.4024777    1.0693371   957980 
   92000    1.0136501   -2.4006018   -2.4006018   -1.3328678  0.059479216   -2.4006018    1.0677339   957980 
   93000    1.0147906     -2.40161     -2.40161   -1.3326748  0.061174822     -2.40161    1.0689352   957980 
   94000    1.0153831   -2.4025031   -2.4025031   -1.3329437  0.063074364   -2.4025031    1.0695594   957980 
   95000    1.0144093   -2.4015531   -2.4015531   -1.3330195  0.061096204   -2.4015531    1.0685336   957980 
   96000    1.0135911   -2.4007833   -2.4007833   -1.3331115  0.058467689   -2.4007833    1.0676718   957980 
   97000    1.0124473   -2.3994621   -2.3994621   -1.3329951  0.057642119   -2.3994621     1.066467   957980 
   98000    1.0127255   -2.3999362   -2.3999362   -1.3331762   0.05618876   -2.3999362      1.06676   957980 
   99000    1.0138718   -2.4012611   -2.4012611   -1.3332936  0.055636975   -2.4012611    1.0679675   957980 
  100000    1.0130876   -2.4001734   -2.4001734    -1.333032  0.054157617   -2.4001734    1.0671414   957980 
  101000    1.0129622   -2.3998936   -2.3998936   -1.3328843   0.06135044   -2.3998936    1.0670093   957980 
  102000    1.0128948   -2.3998429   -2.3998429   -1.3329046  0.054195925   -2.3998429    1.0669383   957980 
  103000    1.0144751   -2.4019095   -2.4019095   -1.3333066  0.065012238   -2.4019095    1.0686029   957980 
  104000    1.0149457   -2.4020763   -2.4020763   -1.3329777  0.061375354   -2.4020763    1.0690986   957980 
  105000    1.0139689   -2.4011393   -2.4011393   -1.3330696  0.056917561   -2.4011393    1.0680697   957980 
  106000    1.0145194   -2.4017062   -2.4017062   -1.3330565  0.054011645   -2.4017062    1.0686496   957980 
  107000    1.0149897   -2.4026618   -2.4026618   -1.3335168  0.057021657   -2.4026618     1.069145   957980 
  108000    1.0160563   -2.4034707   -2.4034707   -1.3332023  0.052611998   -2.4034707    1.0702685   957980 
  109000    1.0159885   -2.4028849   -2.4028849   -1.3326878  0.062065672   -2.4028849     1.070197   957980 
  110000    1.0136139   -2.4009725   -2.4009725   -1.3332767  0.055682437   -2.4009725    1.0676958   957980 
  111000    1.0138763   -2.4012312   -2.4012312    -1.333259  0.053101257   -2.4012312    1.0679722   957980 
  112000    1.0155627   -2.4028656   -2.4028656    -1.333117  0.058638206   -2.4028656    1.0697486   957980 
  113000    1.0138699   -2.4015205   -2.4015205   -1.3335551  0.064699184   -2.4015205    1.0679654   957980 
  114000    1.0153202   -2.4031291   -2.4031291    -1.333636  0.061975954   -2.4031291    1.0694931   957980 
  115000    1.0151563   -2.4035533   -2.4035533   -1.3342328  0.054524286   -2.4035533    1.0693205   957980 
  116000    1.0150139   -2.4039224   -2.4039224   -1.3347519     0.062401   -2.4039224    1.0691705   957980 
  117000     1.014733   -2.4042337   -2.4042337   -1.3353591  0.057531992   -2.4042337    1.0688746   957980 
  118000      1.01427   -2.4038739   -2.4038739    -1.335487  0.061772315   -2.4038739    1.0683869   957980 
  119000    1.0143715   -2.4047957   -2.4047957   -1.3363019  0.058339447   -2.4047957    1.0684938   957980 
  120000     1.013511   -2.4047428   -2.4047428   -1.3371554  0.052487436   -2.4047428    1.0675874   957980 
  121000    1.0126767      -2.4041      -2.4041   -1.3373915  0.056262255      -2.4041    1.0667085   957980 
  122000     1.015817   -2.4070834   -2.4070834   -1.3370669   0.06100386   -2.4070834    1.0700164   957980 
  123000     1.014494   -2.4062971   -2.4062971   -1.3376743   0.06501642   -2.4062971    1.0686228   957980 
  124000     1.014984   -2.4071536   -2.4071536   -1.3380146  0.057056854   -2.4071536     1.069139   957980 
  125000    1.0141928   -2.4063924   -2.4063924   -1.3380868  0.052428368   -2.4063924    1.0683056   957980 
  126000    1.0147622   -2.4069782   -2.4069782   -1.3380729  0.055292765   -2.4069782    1.0689054   957980 
  127000    1.0154031   -2.4082077   -2.4082077   -1.3386273  0.056884493   -2.4082077    1.0695804   957980 
  128000    1.0156464   -2.4087827   -2.4087827    -1.338946  0.059453049   -2.4087827    1.0698367   957980 
  129000    1.0141293   -2.4076727   -2.4076727   -1.3394341  0.065493115   -2.4076727    1.0682387   957980 
  130000    1.0137585   -2.4077435   -2.4077435   -1.3398954  0.061625126   -2.4077435    1.0678481   957980 
  131000      1.01389   -2.4086485   -2.4086485   -1.3406618  0.059088984   -2.4086485    1.0679866   957980 
  132000    1.0147928   -2.4100785   -2.4100785   -1.3411409  0.059148382   -2.4100785    1.0689376   957980 
  133000    1.0136513   -2.4087886   -2.4087886   -1.3410535  0.060014825   -2.4087886    1.0677351   957980 
  134000    1.0132202   -2.4088627   -2.4088627   -1.3415816  0.059410977   -2.4088627    1.0672811   957980 
  135000    1.0144522   -2.4104072   -2.4104072   -1.3418284  0.054645821   -2.4104072    1.0685788   957980 
  136000    1.0148741   -2.4104696   -2.4104696   -1.3414464  0.057096723   -2.4104696    1.0690232   957980 
  137000    1.0147846   -2.4111005   -2.4111005   -1.3421716  0.060864697   -2.4111005    1.0689289   957980 
  138000    1.0138827    -2.410314    -2.410314   -1.3423351  0.062013595    -2.410314    1.0679789   957980 
  139000    1.0136238   -2.4101658   -2.4101658   -1.3424596  0.056176552   -2.4101658    1.0677062   957980 
  140000    1.0138686   -2.4107627   -2.4107627   -1.3427986  0.056579927   -2.4107627    1.0679641   957980 
  141000    1.0152127   -2.4120101   -2.4120101   -1.3426302   0.05772514   -2.4120101    1.0693799   957980 
  142000    1.0156693   -2.4125805   -2.4125805   -1.3427197  0.063498866   -2.4125805    1.0698608   957980 
  143000    1.0148526   -2.4124753   -2.4124753   -1.3434748  0.064092702   -2.4124753    1.0690005   957980 
  144000    1.0150585   -2.4126656   -2.4126656   -1.3434481  0.062281229   -2.4126656    1.0692175   957980 
  145000    1.0151105   -2.4129436   -2.4129436   -1.3436714  0.063632017   -2.4129436    1.0692722   957980 
  146000     1.015724   -2.4135652   -2.4135652   -1.3436467  0.056430835   -2.4135652    1.0699185   957980 
  147000    1.0150049   -2.4127885   -2.4127885   -1.3436274  0.055268095   -2.4127885     1.069161   957980 
  148000    1.0142612   -2.4124255   -2.4124255   -1.3440479  0.060305134   -2.4124255    1.0683776   957980 
  149000    1.0138104   -2.4119884   -2.4119884   -1.3440857  0.061459838   -2.4119884    1.0679028   957980 
  150000    1.0127934   -2.4116623   -2.4116623   -1.3448308  0.061759695   -2.4116623    1.0668315   957980 
  151000    1.0134804   -2.4126942   -2.4126942   -1.3451391  0.057199006   -2.4126942    1.0675552   957980 
  152000    1.0144038   -2.4132986   -2.4132986   -1.3447707  0.057319693   -2.4132986    1.0685278   957980 
  153000    1.0135359   -2.4124266   -2.4124266   -1.3448129   0.06289209   -2.4124266    1.0676137   957980 
  154000    1.0137794   -2.4127492   -2.4127492   -1.3448791   0.05777266   -2.4127492    1.0678701   957980 
  155000    1.0134805   -2.4116546   -2.4116546   -1.3440994  0.056374084   -2.4116546    1.0675552   957980 
  156000       1.0148   -2.4127077   -2.4127077   -1.3437625   0.06208086   -2.4127077    1.0689452   957980 
  157000    1.0153251   -2.4138338   -2.4138338   -1.3443355  0.056810975   -2.4138338    1.0694983   957980 
  158000     1.014718   -2.4130197   -2.4130197   -1.3441609  0.061070904   -2.4130197    1.0688588   957980 
  159000     1.014272   -2.4124931   -2.4124931   -1.3441041  0.059585829   -2.4124931     1.068389   957980 
  160000    1.0149287   -2.4136306   -2.4136306   -1.3445499  0.059894418   -2.4136306    1.0690807   957980 
  161000    1.0154716   -2.4148035   -2.4148035   -1.3451509  0.061996014   -2.4148035    1.0696526   957980 
  162000     1.014642   -2.4141198   -2.4141198    -1.345341  0.060832601   -2.4141198    1.0687787   957980 
  163000    1.0143677   -2.4134694   -2.4134694   -1.3449796   0.06319984   -2.4134694    1.0684898   957980 
  164000    1.0149131   -2.4142947   -2.4142947   -1.3452304   0.06139455   -2.4142947    1.0690643   957980 
  165000     1.013959   -2.4135968   -2.4135968   -1.3455375  0.056528247   -2.4135968    1.0680593   957980 
  166000    1.0124627   -2.4122814   -2.4122814   -1.3457982  0.058074929   -2.4122814    1.0664832   957980 
  167000    1.0131935   -2.4125438   -2.4125438   -1.3452909   0.06484816   -2.4125438    1.0672529   957980 
  168000    1.0123846   -2.4120696   -2.4120696   -1.3456687  0.058306707   -2.4120696    1.0664009   957980 
  169000    1.0126691   -2.4124844   -2.4124844   -1.3457839  0.055817195   -2.4124844    1.0667005   957980 
  170000    1.0136414   -2.4138877   -2.4138877   -1.3461629  0.058648659   -2.4138877    1.0677248   957980 
  171000    1.0122664   -2.4128564   -2.4128564   -1.3465801  0.062156593   -2.4128564    1.0662763   957980 
  172000    1.0138131   -2.4140841   -2.4140841   -1.3461785  0.052936492   -2.4140841    1.0679056   957980 
  173000    1.0129005   -2.4138359   -2.4138359   -1.3468916  0.058818691   -2.4138359    1.0669444   957980 
  174000    1.0131814   -2.4137546   -2.4137546   -1.3465145  0.061895902   -2.4137546    1.0672402   957980 
  175000    1.0132248   -2.4134048   -2.4134048   -1.3461189  0.065858856   -2.4134048    1.0672859   957980 
  176000    1.0146315   -2.4148479   -2.4148479   -1.3460803  0.056419315   -2.4148479    1.0687677   957980 
  177000    1.0148812   -2.4147581   -2.4147581   -1.3457274  0.059885466   -2.4147581    1.0690307   957980 
  178000    1.0132123   -2.4132275   -2.4132275   -1.3459548  0.059685096   -2.4132275    1.0672727   957980 
  179000    1.0134656   -2.4139956   -2.4139956   -1.3464561  0.058745237   -2.4139956    1.0675395   957980 
  180000    1.0128636   -2.4135729   -2.4135729   -1.3466675  0.060261075   -2.4135729    1.0669055   957980 
  181000    1.0139936   -2.4152602   -2.4152602   -1.3471644  0.062478912   -2.4152602    1.0680957   957980 
  182000    1.0130836    -2.413919    -2.413919   -1.3467818  0.053976413    -2.413919    1.0671371   957980 
  183000    1.0139625   -2.4153347   -2.4153347   -1.3472718  0.062406971   -2.4153347     1.068063   957980 
  184000    1.0131533   -2.4146073   -2.4146073   -1.3473967  0.054697744   -2.4146073    1.0672106   957980 
  185000    1.0126118   -2.4142413   -2.4142413   -1.3476011  0.055912919   -2.4142413    1.0666403   957980 
  186000    1.0136031   -2.4152512   -2.4152512   -1.3475669  0.064025326   -2.4152512    1.0676844   957980 
  187000    1.0134594   -2.4157447   -2.4157447   -1.3482116  0.060640618   -2.4157447    1.0675331   957980 
  188000    1.0121685   -2.4151761   -2.4151761   -1.3490028  0.056184678   -2.4151761    1.0661732   957980 
  189000    1.0129094    -2.414989    -2.414989   -1.3480353  0.059174377    -2.414989    1.0669537   957980 
  190000    1.0124679   -2.4146966   -2.4146966    -1.348208  0.053223003   -2.4146966    1.0664887   957980 
  191000    1.0111803    -2.413615    -2.413615   -1.3484826  0.064059226    -2.413615    1.0651324   957980 
  192000    1.0125744   -2.4154724   -2.4154724   -1.3488717   0.06472327   -2.4154724    1.0666008   957980 
  193000    1.0129903   -2.4157888   -2.4157888   -1.3487499  0.060980928   -2.4157888    1.0670389   957980 
  194000    1.0122336   -2.4153432   -2.4153432   -1.3491014  0.054869819   -2.4153432    1.0662418   957980 
  195000    1.0125057   -2.4155831   -2.4155831   -1.3490547    0.0654349   -2.4155831    1.0665284   957980 
  196000    1.0126815   -2.4159281   -2.4159281   -1.3492144  0.058473148   -2.4159281    1.0667136   957980 
  197000    1.0124432   -2.4156132   -2.4156132   -1.3491506  0.059524579   -2.4156132    1.0664626   957980 
  198000    1.0130113   -2.4162913   -2.4162913   -1.3492304  0.062602793   -2.4162913     1.067061   957980 
  199000    1.0121598   -2.4154683   -2.4154683   -1.3493041  0.053679214   -2.4154683    1.0661641   957980 
  200000    1.0121647   -2.4151391   -2.4151391   -1.3489698  0.060396182   -2.4151391    1.0661693   957980 
  201000    1.0136984   -2.4168807   -2.4168807    -1.349096  0.062579558   -2.4168807    1.0677848   957980 
  202000    1.0129292   -2.4164561   -2.4164561   -1.3494816  0.063380964   -2.4164561    1.0669745   957980 
  203000    1.0121647   -2.4157875   -2.4157875   -1.3496183  0.059880615   -2.4157875    1.0661692   957980 
  204000    1.0143204   -2.4171903   -2.4171903   -1.3487503  0.054511887   -2.4171903      1.06844   957980 
  205000    1.0150898    -2.417374    -2.417374   -1.3481236  0.059628931    -2.417374    1.0692504   957980 
  206000    1.0140613   -2.4171909   -2.4171909   -1.3490238  0.059311538   -2.4171909    1.0681671   957980 
  207000    1.0122086   -2.4152785   -2.4152785    -1.349063  0.061938661   -2.4152785    1.0662154   957980 
  208000    1.0136507    -2.416633    -2.416633   -1.3488985  0.059083601    -2.416633    1.0677345   957980 
  209000     1.014872   -2.4175804   -2.4175804   -1.3485593  0.059254898   -2.4175804     1.069021   957980 
  210000    1.0138521   -2.4168071   -2.4168071   -1.3488604  0.055100339   -2.4168071    1.0679467   957980 
  211000    1.0144968   -2.4175079   -2.4175079   -1.3488821  0.059772636   -2.4175079    1.0686258   957980 
  212000    1.0144392   -2.4177539   -2.4177539   -1.3491888  0.060041317   -2.4177539    1.0685651   957980 
  213000    1.0124271   -2.4161106   -2.4161106   -1.3496649    0.0585483   -2.4161106    1.0664457   957980 
  214000    1.0127781   -2.4164772   -2.4164772   -1.3496619  0.059752531   -2.4164772    1.0668153   957980 
  215000    1.0127577   -2.4162602   -2.4162602   -1.3494663    0.0554785   -2.4162602    1.0667939   957980 
  216000    1.0132936   -2.4170718   -2.4170718   -1.3497134  0.063108938   -2.4170718    1.0673584   957980 
  217000    1.0122788   -2.4166597   -2.4166597   -1.3503703  0.052153353   -2.4166597    1.0662894   957980 
  218000    1.0120742   -2.4164812   -2.4164812   -1.3504073  0.059362304   -2.4164812    1.0660739   957980 
  219000    1.0125082   -2.4164938   -2.4164938   -1.3499628  0.066620876   -2.4164938     1.066531   957980 
  220000    1.0143145   -2.4190094   -2.4190094   -1.3505757  0.058303748   -2.4190094    1.0684337   957980 
  221000    1.0139311   -2.4180469   -2.4180469   -1.3500169  0.070461892   -2.4180469    1.0680299   957980 
  222000    1.0132135   -2.4183304   -2.4183304   -1.3510563  0.061278364   -2.4183304     1.067274   957980 
  223000    1.0135622   -2.4188527   -2.4188527   -1.3512114  0.067342111   -2.4188527    1.0676413   957980 
  224000    1.0123463   -2.4177595   -2.4177595    -1.351399  0.059822658   -2.4177595    1.0663605   957980 
  225000    1.0131889   -2.4186714   -2.4186714   -1.3514233  0.060872347   -2.4186714    1.0672481   957980 
  226000    1.0131876   -2.4187575   -2.4187575   -1.3515107  0.052147534   -2.4187575    1.0672468   957980 
  227000    1.0122977   -2.4176443   -2.4176443    -1.351335  0.061353429   -2.4176443    1.0663093   957980 
  228000    1.0134129   -2.4186809   -2.4186809   -1.3511968  0.060103579   -2.4186809    1.0674841   957980 
  229000    1.0137381   -2.4191118   -2.4191118   -1.3512852  0.060596683   -2.4191118    1.0678266   957980 
  230000    1.0123553   -2.4178544   -2.4178544   -1.3514843  0.056461464   -2.4178544    1.0663701   957980 
  231000    1.0137901   -2.4189549   -2.4189549   -1.3510735  0.055687707   -2.4189549    1.0678814   957980 
  232000    1.0117333   -2.4173355   -2.4173355   -1.3516207  0.055390643   -2.4173355    1.0657148   957980 
  233000    1.0116634   -2.4175834   -2.4175834   -1.3519422  0.056395486   -2.4175834    1.0656412   957980 
  234000    1.0120216   -2.4183079   -2.4183079   -1.3522894  0.053926417   -2.4183079    1.0660185   957980 
  235000    1.0120508   -2.4173327   -2.4173327   -1.3512834  0.057016884   -2.4173327    1.0660492   957980 
  236000    1.0114404   -2.4170644   -2.4170644    -1.351658   0.06072324   -2.4170644    1.0654063   957980 
  237000     1.012217    -2.418028    -2.418028   -1.3518036  0.063697823    -2.418028    1.0662244   957980 
  238000    1.0126018   -2.4182674   -2.4182674   -1.3516377  0.058511553   -2.4182674    1.0666297   957980 
  239000    1.0119639   -2.4174205   -2.4174205   -1.3514628  0.063933169   -2.4174205    1.0659577   957980 
  240000    1.0118071    -2.417583    -2.417583   -1.3517904   0.06339268    -2.417583    1.0657926   957980 
  241000    1.0121895   -2.4180636   -2.4180636   -1.3518682  0.057071204   -2.4180636    1.0661954   957980 
  242000    1.0118349    -2.417904    -2.417904   -1.3520821  0.058146569    -2.417904    1.0658219   957980 
  243000    1.0121215   -2.4181787   -2.4181787    -1.352055  0.050730827   -2.4181787    1.0661237   957980 
  244000     1.012281    -2.418758    -2.418758   -1.3524662  0.056223495    -2.418758    1.0662918   957980 
  245000    1.0118955   -2.4178906   -2.4178906   -1.3520049  0.061159625   -2.4178906    1.0658857   957980 
  246000    1.0121584   -2.4182074   -2.4182074   -1.3520448  0.061680915   -2.4182074    1.0661626   957980 
  247000    1.0123519   -2.4185707   -2.4185707   -1.3522043  0.059458295   -2.4185707    1.0663664   957980 
  248000    1.0135855   -2.4197946   -2.4197946   -1.3521287   0.05051534   -2.4197946    1.0676659   957980 
  249000    1.0109039   -2.4176715   -2.4176715   -1.3528304  0.063081251   -2.4176715    1.0648412   957980 
  250000    1.0121885   -2.4191077   -2.4191077   -1.3529134  0.061310104   -2.4191077    1.0661943   957980 
  251000    1.0139422    -2.420711    -2.420711   -1.3526694  0.055655434    -2.420711    1.0680416   957980 
  252000    1.0127865   -2.4191886   -2.4191886   -1.3523644  0.065288926   -2.4191886    1.0668242   957980 
  253000    1.0132456   -2.4200239   -2.4200239    -1.352716  0.064640844   -2.4200239    1.0673079   957980 
  254000    1.0118479   -2.4187887   -2.4187887   -1.3529531  0.064749703   -2.4187887    1.0658356   957980 
  255000    1.0118957   -2.4186619   -2.4186619    -1.352776  0.070098368   -2.4186619    1.0658859   957980 
  256000    1.0130594    -2.419996    -2.419996   -1.3528844  0.062502389    -2.419996    1.0671116   957980 
  257000    1.0143791   -2.4214018   -2.4214018      -1.3529  0.064785949   -2.4214018    1.0685018   957980 
  258000    1.0128976   -2.4201434   -2.4201434   -1.3532021  0.070307625   -2.4201434    1.0669413   957980 
  259000    1.0138019   -2.4213637   -2.4213637   -1.3534698  0.056314533   -2.4213637    1.0678938   957980 
  260000    1.0138503   -2.4211371   -2.4211371   -1.3531923  0.067650444   -2.4211371    1.0679448   957980 
  261000    1.0131189   -2.4205969   -2.4205969   -1.3534225  0.059904736   -2.4205969    1.0671743   957980 
  262000    1.0138773   -2.4216594   -2.4216594   -1.3536862  0.061891926   -2.4216594    1.0679732   957980 
  263000    1.0151606   -2.4233607   -2.4233607   -1.3540357  0.070082316   -2.4233607     1.069325   957980 
  264000    1.0141541   -2.4225291   -2.4225291   -1.3542643  0.066007664   -2.4225291    1.0682648   957980 
  265000    1.0151705   -2.4240275   -2.4240275    -1.354692  0.057126049   -2.4240275    1.0693355   957980 
  266000    1.0127681   -2.4219444   -2.4219444   -1.3551395  0.066196882   -2.4219444    1.0668049   957980 
  267000    1.0131112   -2.4223834   -2.4223834   -1.3552172  0.065081977   -2.4223834    1.0671662   957980 
  268000    1.0119757   -2.4215403   -2.4215403   -1.3555701  0.059890873   -2.4215403    1.0659702   957980 
  269000    1.0111204   -2.4210994   -2.4210994   -1.3560302  0.060514548   -2.4210994    1.0650693   957980 
  270000     1.012247   -2.4217209   -2.4217209    -1.355465  0.064549151   -2.4217209    1.0662559   957980 
  271000    1.0112833   -2.4217427   -2.4217427   -1.3565018  0.059878901   -2.4217427    1.0652409   957980 
  272000    1.0132627   -2.4230543   -2.4230543   -1.3557284  0.064751565   -2.4230543    1.0673259   957980 
  273000    1.0125128   -2.4223239   -2.4223239   -1.3557879  0.059961268   -2.4223239     1.066536   957980 
  274000    1.0109152   -2.4209616   -2.4209616   -1.3561085  0.063151909   -2.4209616    1.0648531   957980 
  275000    1.0118995   -2.4225321   -2.4225321   -1.3566421  0.057841968   -2.4225321    1.0658899   957980 
  276000    1.0107638   -2.4213312   -2.4213312   -1.3566376  0.058791933   -2.4213312    1.0646936   957980 
  277000    1.0106456   -2.4206973   -2.4206973   -1.3561282   0.05467871   -2.4206973    1.0645691   957980 
  278000    1.0117658   -2.4216549   -2.4216549   -1.3559059  0.059679898   -2.4216549     1.065749   957980 
  279000    1.0125231   -2.4238016   -2.4238016   -1.3572548  0.056912463   -2.4238016    1.0665468   957980 
  280000    1.0114586   -2.4224784   -2.4224784   -1.3570529   0.05819149   -2.4224784    1.0654255   957980 
  281000    1.0113011   -2.4227191   -2.4227191   -1.3574595  0.055559548   -2.4227191    1.0652596   957980 
  282000    1.0126381   -2.4237902   -2.4237902   -1.3571223  0.058149588   -2.4237902    1.0666679   957980 
  283000    1.0121203   -2.4228523   -2.4228523   -1.3567298  0.057225762   -2.4228523    1.0661225   957980 
  284000    1.0118408   -2.4224054   -2.4224054   -1.3565774   0.05289516   -2.4224054     1.065828   957980 
  285000    1.0116508   -2.4228125   -2.4228125   -1.3571846  0.065786753   -2.4228125    1.0656279   957980 
  286000    1.0133082   -2.4243246   -2.4243246   -1.3569509  0.053646435   -2.4243246    1.0673737   957980 
  287000     1.011585   -2.4224563   -2.4224563   -1.3568977  0.058857162   -2.4224563    1.0655586   957980 
  288000    1.0126995   -2.4236237   -2.4236237   -1.3568911  0.058370092   -2.4236237    1.0667326   957980 
  289000    1.0118124   -2.4228018   -2.4228018   -1.3570037  0.056582351   -2.4228018    1.0657982   957980 
  290000    1.0131936   -2.4236943   -2.4236943   -1.3564413  0.064840234   -2.4236943     1.067253   957980 
  291000    1.0137417   -2.4244885   -2.4244885   -1.3566582  0.064211105   -2.4244885    1.0678304   957980 
  292000    1.0121092   -2.4236231   -2.4236231   -1.3575123  0.061613107   -2.4236231    1.0661108   957980 
  293000    1.0111638    -2.422913    -2.422913    -1.357798  0.059536341    -2.422913     1.065115   957980 
  294000    1.0113286   -2.4222265   -2.4222265   -1.3569379  0.058076391   -2.4222265    1.0652886   957980 
  295000    1.0119765   -2.4231721   -2.4231721   -1.3572012  0.058718403   -2.4231721     1.065971   957980 
  296000     1.012095   -2.4237256   -2.4237256   -1.3576298  0.061177271   -2.4237256    1.0660958   957980 
  297000    1.0130267   -2.4243747   -2.4243747   -1.3572974  0.058910101   -2.4243747    1.0670773   957980 
  298000    1.0119013   -2.4231361   -2.4231361   -1.3572443  0.053302319   -2.4231361    1.0658918   957980 
  299000    1.0124037   -2.4236413   -2.4236413   -1.3572202  0.065492619   -2.4236413     1.066421   957980 
  300000     1.012573   -2.4237771   -2.4237771   -1.3571778  0.059317525   -2.4237771    1.0665994   957980 
  301000     1.011993   -2.4239714   -2.4239714    -1.357983  0.052777522   -2.4239714    1.0659884   957980 
  302000      1.01294   -2.4243522   -2.4243522   -1.3573663  0.061205268   -2.4243522    1.0669859   957980 
  303000     1.013324   -2.4248532   -2.4248532   -1.3574628  0.063757588   -2.4248532    1.0673904   957980 
  304000    1.0118824   -2.4242242   -2.4242242   -1.3583524  0.063849864   -2.4242242    1.0658718   957980 
  305000    1.0130222   -2.4258942   -2.4258942   -1.3588217  0.063773687   -2.4258942    1.0670725   957980 
  306000    1.0123005   -2.4258138   -2.4258138   -1.3595015  0.057340918   -2.4258138    1.0663123   957980 
  307000    1.0122775   -2.4258724   -2.4258724   -1.3595844  0.059467005   -2.4258724     1.066288   957980 
  308000    1.0118532   -2.4255825   -2.4255825   -1.3597414  0.050767971   -2.4255825    1.0658411   957980 
  309000    1.0134079   -2.4269102   -2.4269102   -1.3594315  0.056076466   -2.4269102    1.0674787   957980 
  310000     1.012893    -2.426733    -2.426733   -1.3597966  0.061374146    -2.426733    1.0669364   957980 
  311000    1.0121809   -2.4260404   -2.4260404    -1.359854  0.067160498   -2.4260404    1.0661864   957980 
  312000    1.0116891   -2.4257657   -2.4257657   -1.3600974  0.059321064   -2.4257657    1.0656683   957980 
  313000    1.0121468   -2.4266428   -2.4266428   -1.3604924  0.056581116   -2.4266428    1.0661504   957980 
  314000     1.012461   -2.4275822   -2.4275822   -1.3611009   0.06725194   -2.4275822    1.0664813   957980 
  315000    1.0121155   -2.4270811   -2.4270811   -1.3609636  0.064154744   -2.4270811    1.0661174   957980 
  316000    1.0122332   -2.4275346   -2.4275346   -1.3612933  0.057854223   -2.4275346    1.0662414   957980 
  317000    1.0121408   -2.4270751   -2.4270751    -1.360931  0.063388571   -2.4270751    1.0661441   957980 
  318000    1.0126174   -2.4279772   -2.4279772   -1.3613311  0.059978524   -2.4279772    1.0666461   957980 
  319000    1.0130269   -2.4286946   -2.4286946   -1.3616172  0.062972782   -2.4286946    1.0670774   957980 
  320000    1.0121033   -2.4274733   -2.4274733   -1.3613687  0.063903838   -2.4274733    1.0661046   957980 
  321000    1.0123879   -2.4275546   -2.4275546   -1.3611502  0.056176487   -2.4275546    1.0664044   957980 
  322000    1.0114974   -2.4264424   -2.4264424   -1.3609761  0.060373368   -2.4264424    1.0654663   957980 
  323000    1.0119211   -2.4269538   -2.4269538   -1.3610411  0.052786717   -2.4269538    1.0659127   957980 
  324000    1.0105508   -2.4248572   -2.4248572    -1.360388  0.058242186   -2.4248572    1.0644692   957980 
  325000    1.0114033   -2.4253082   -2.4253082   -1.3599409  0.059858597   -2.4253082    1.0653672   957980 
  326000    1.0132691   -2.4277898   -2.4277898   -1.3604573  0.059105035   -2.4277898    1.0673326   957980 
  327000     1.011585   -2.4262344   -2.4262344   -1.3606758  0.059083183   -2.4262344    1.0655587   957980 
  328000    1.0121404   -2.4268228   -2.4268228   -1.3606792  0.063578503   -2.4268228    1.0661436   957980 
  329000    1.0134876    -2.427785    -2.427785   -1.3602223  0.061066619    -2.427785    1.0675627   957980 
  330000    1.0126928    -2.427594    -2.427594   -1.3608685  0.056163336    -2.427594    1.0667255   957980 
  331000     1.012191   -2.4265527   -2.4265527   -1.3603557  0.068317685   -2.4265527    1.0661969   957980 
  332000    1.0117382    -2.426855    -2.426855    -1.361135  0.058842492    -2.426855      1.06572   957980 
  333000    1.0125547   -2.4278526   -2.4278526   -1.3612725  0.055624727   -2.4278526    1.0665801   957980 
  334000    1.0108636   -2.4254663   -2.4254663   -1.3606675  0.060578334   -2.4254663    1.0647988   957980 
  335000    1.0127033   -2.4269341   -2.4269341   -1.3601975  0.063839626   -2.4269341    1.0667366   957980 
  336000    1.0112378   -2.4252727   -2.4252727   -1.3600799   0.06426208   -2.4252727    1.0651929   957980 
  337000    1.0095319   -2.4235214   -2.4235214   -1.3601254  0.063712211   -2.4235214     1.063396   957980 
  338000    1.0119004   -2.4254814   -2.4254814   -1.3595905  0.065841268   -2.4254814    1.0658909   957980 
  339000    1.0121078    -2.425796    -2.425796   -1.3596867   0.06450275    -2.425796    1.0661093   957980 
  340000    1.0122465    -2.425915    -2.425915   -1.3596596   0.06172802    -2.425915    1.0662554   957980 
  341000     1.013024   -2.4268813   -2.4268813   -1.3598069  0.061124202   -2.4268813    1.0670744   957980 
  342000    1.0130756   -2.4275754   -2.4275754   -1.3604466  0.059682865   -2.4275754    1.0671288   957980 
  343000    1.0118016   -2.4255262   -2.4255262   -1.3597394  0.060505662   -2.4255262    1.0657868   957980 
  344000      1.01215   -2.4265468   -2.4265468   -1.3603931     0.062987   -2.4265468    1.0661538   957980 
  345000    1.0105708     -2.42477     -2.42477   -1.3602797  0.062238984     -2.42477    1.0644903   957980 
  346000    1.0105565   -2.4249868   -2.4249868   -1.3605115  0.062879776   -2.4249868    1.0644753   957980 
  347000    1.0109123   -2.4247666   -2.4247666   -1.3599167  0.058021419   -2.4247666      1.06485   957980 
  348000      1.01112   -2.4254979   -2.4254979    -1.360429  0.053398713   -2.4254979    1.0650688   957980 
  349000    1.0106921   -2.4248747   -2.4248747   -1.3602567  0.054676423   -2.4248747    1.0646181   957980 
  350000    1.0099685   -2.4238923   -2.4238923   -1.3600364  0.063371922   -2.4238923    1.0638559   957980 
  351000    1.0098862   -2.4238226   -2.4238226   -1.3600534  0.049220834   -2.4238226    1.0637692   957980 
  352000    1.0128961   -2.4268229   -2.4268229   -1.3598832  0.056379299   -2.4268229    1.0669396   957980 
  353000    1.0115003   -2.4254045   -2.4254045   -1.3599351  0.062664428   -2.4254045    1.0654694   957980 
  354000      1.01265   -2.4270766   -2.4270766   -1.3603962  0.057406278   -2.4270766    1.0666804   957980 
  355000    1.0128152   -2.4269327   -2.4269327   -1.3600782  0.062962474   -2.4269327    1.0668545   957980 
  356000    1.0117466   -2.4259934   -2.4259934   -1.3602646  0.065752629   -2.4259934    1.0657288   957980 
  357000    1.0123013   -2.4269774   -2.4269774   -1.3606643  0.062938606   -2.4269774    1.0663131   957980 
  358000    1.0125641   -2.4281462   -2.4281462   -1.3615562  0.058196953   -2.4281462      1.06659   957980 
  359000    1.0113642   -2.4271297   -2.4271297   -1.3618037  0.068603068   -2.4271297    1.0653261   957980 
  360000    1.0112819   -2.4271245   -2.4271245   -1.3618851   0.05927103   -2.4271245    1.0652394   957980 
  361000    1.0124542   -2.4276632   -2.4276632    -1.361189  0.064706677   -2.4276632    1.0664742   957980 
  362000    1.0121296   -2.4277865   -2.4277865   -1.3616542  0.056780524   -2.4277865    1.0661323   957980 
  363000    1.0108058   -2.4270681   -2.4270681   -1.3623303  0.056622127   -2.4270681    1.0647379   957980 
  364000    1.0102102   -2.4266416   -2.4266416   -1.3625311  0.060228005   -2.4266416    1.0641105   957980 
  365000    1.0118025   -2.4288371   -2.4288371   -1.3630494  0.058323985   -2.4288371    1.0657877   957980 
  366000    1.0105912   -2.4272325   -2.4272325   -1.3627207   0.06366284   -2.4272325    1.0645118   957980 
  367000    1.0124185   -2.4292065   -2.4292065   -1.3627699  0.067605126   -2.4292065    1.0664366   957980 
  368000    1.0128272   -2.4297444   -2.4297444   -1.3628773  0.061628987   -2.4297444    1.0668671   957980 
  369000    1.0127063   -2.4294523   -2.4294523   -1.3627125  0.058320259   -2.4294523    1.0667397   957980 
  370000    1.0115475   -2.4287461   -2.4287461    -1.363227  0.063256323   -2.4287461    1.0655191   957980 
  371000    1.0108319   -2.4276169   -2.4276169   -1.3628516   0.05939966   -2.4276169    1.0647654   957980 
  372000    1.0130141   -2.4305211   -2.4305211   -1.3634571   0.04998744   -2.4305211     1.067064   957980 
  373000    1.0121165   -2.4290024   -2.4290024   -1.3628838  0.063851018   -2.4290024    1.0661185   957980 
  374000    1.0119854    -2.429235    -2.429235   -1.3632546   0.06330182    -2.429235    1.0659804   957980 
  375000    1.0127617   -2.4302316   -2.4302316   -1.3634335  0.066062927   -2.4302316    1.0667981   957980 
  376000    1.0126016   -2.4297933   -2.4297933   -1.3631638  0.061519184   -2.4297933    1.0666295   957980 
  377000    1.0126768   -2.4300341   -2.4300341   -1.3633254  0.067323165   -2.4300341    1.0667086   957980 
  378000    1.0112967    -2.429288    -2.429288   -1.3640331  0.059879527    -2.429288    1.0652549   957980 
  379000    1.0114786   -2.4291429   -2.4291429   -1.3636963  0.066540297   -2.4291429    1.0654466   957980 
  380000    1.0115192   -2.4292017   -2.4292017   -1.3637124  0.060924735   -2.4292017    1.0654893   957980 
  381000    1.0125097   -2.4307594   -2.4307594   -1.3642268  0.064452417   -2.4307594    1.0665327   957980 
  382000    1.0115432   -2.4301872   -2.4301872   -1.3646726  0.064493671   -2.4301872    1.0655146   957980 
  383000    1.0121253   -2.4307676   -2.4307676   -1.3646398    0.0633586   -2.4307676    1.0661278   957980 
  384000    1.0122927    -2.431204    -2.431204      -1.3649  0.061065553    -2.431204     1.066304   957980 
  385000    1.0111368   -2.4306427   -2.4306427   -1.3655562  0.058657408   -2.4306427    1.0650865   957980 
  386000    1.0106631   -2.4301124   -2.4301124   -1.3655249  0.065203413   -2.4301124    1.0645876   957980 
  387000    1.0117664   -2.4316273   -2.4316273   -1.3658776  0.060720144   -2.4316273    1.0657497   957980 
  388000    1.0105147   -2.4309054   -2.4309054   -1.3664742  0.055620408   -2.4309054    1.0644312   957980 
  389000    1.0113283   -2.4313773   -2.4313773   -1.3660891  0.054049851   -2.4313773    1.0652882   957980 
  390000    1.0103873   -2.4300253   -2.4300253   -1.3657283  0.062665453   -2.4300253     1.064297   957980 
  391000    1.0108709   -2.4309046   -2.4309046   -1.3660982  0.059419993   -2.4309046    1.0648064   957980 
  392000    1.0105322    -2.430958    -2.430958   -1.3665083  0.067770394    -2.430958    1.0644497   957980 
  393000    1.0115306   -2.4319878   -2.4319878   -1.3664864   0.05924485   -2.4319878    1.0655014   957980 
  394000    1.0103147   -2.4304148   -2.4304148   -1.3661943   0.06139069   -2.4304148    1.0642206   957980 
  395000    1.0116557   -2.4317684   -2.4317684   -1.3661354  0.063434155   -2.4317684    1.0656331   957980 
  396000    1.0105345   -2.4307633   -2.4307633   -1.3663112  0.064939086   -2.4307633    1.0644521   957980 
  397000    1.0111622   -2.4317131   -2.4317131   -1.3665998  0.054097935   -2.4317131    1.0651133   957980 
  398000    1.0115823   -2.4326216   -2.4326216   -1.3670659  0.063706323   -2.4326216    1.0655557   957980 
  399000    1.0106689   -2.4318088   -2.4318088   -1.3672152  0.058285898   -2.4318088    1.0645936   957980 
  400000    1.0107957   -2.4317717   -2.4317717   -1.3670444  0.061148826   -2.4317717    1.0647273   957980 
  401000    1.0107614   -2.4315446   -2.4315446   -1.3668535  0.063206142   -2.4315446     1.064691   957980 
  402000    1.0105585   -2.4316475   -2.4316475   -1.3671702  0.056683364   -2.4316475    1.0644774   957980 
  403000    1.0101503   -2.4319234   -2.4319234    -1.367876  0.063620555   -2.4319234    1.0640474   957980 
  404000    1.0115689   -2.4335997   -2.4335997   -1.3680581  0.063031983   -2.4335997    1.0655416   957980 
  405000    1.0116701   -2.4325552   -2.4325552   -1.3669069  0.059842689   -2.4325552    1.0656483   957980 
  406000    1.0115695   -2.4325618   -2.4325618   -1.3670195  0.065084783   -2.4325618    1.0655423   957980 
  407000    1.0113828   -2.4313282   -2.4313282   -1.3659825  0.060731822   -2.4313282    1.0653456   957980 
  408000    1.0117486   -2.4327882   -2.4327882   -1.3670572    0.0626177   -2.4327882     1.065731   957980 
  409000    1.0119394   -2.4338359   -2.4338359    -1.367904  0.058186422   -2.4338359    1.0659319   957980 
  410000    1.0118151   -2.4339315   -2.4339315   -1.3681305  0.059298641   -2.4339315     1.065801   957980 
  411000    1.0117594   -2.4340125   -2.4340125   -1.3682701  0.062118706   -2.4340125    1.0657423   957980 
  412000    1.0101691   -2.4319505   -2.4319505   -1.3678834  0.061072294   -2.4319505    1.0640671   957980 
  413000    1.0111841   -2.4329213   -2.4329213    -1.367785  0.061148758   -2.4329213    1.0651363   957980 
  414000    1.0115573   -2.4343086   -2.4343086   -1.3687792  0.068313858   -2.4343086    1.0655295   957980 
  415000    1.0097942   -2.4332994   -2.4332994   -1.3696272  0.064340349   -2.4332994    1.0636722   957980 
  416000    1.0095113   -2.4327948   -2.4327948   -1.3694206  0.063445229   -2.4327948    1.0633742   957980 
  417000    1.0113032   -2.4337836   -2.4337836   -1.3685218  0.057349003   -2.4337836    1.0652618   957980 
  418000    1.0104451   -2.4330758   -2.4330758   -1.3687178  0.056045943   -2.4330758     1.064358   957980 
  419000    1.0102937   -2.4334734   -2.4334734   -1.3692751  0.060969201   -2.4334734    1.0641984   957980 
  420000    1.0095156   -2.4321616   -2.4321616   -1.3687829   0.06046607   -2.4321616    1.0633788   957980 
  421000    1.0106508   -2.4339709   -2.4339709   -1.3693963  0.066323704   -2.4339709    1.0645746   957980 
  422000    1.0109739    -2.434519    -2.434519   -1.3696041  0.057777166    -2.434519    1.0649149   957980 
  423000    1.0110781   -2.4344741   -2.4344741   -1.3694494  0.063672697   -2.4344741    1.0650247   957980 
  424000    1.0098757   -2.4341993   -2.4341993   -1.3704412  0.057403185   -2.4341993    1.0637581   957980 
  425000    1.0097752   -2.4338631   -2.4338631   -1.3702108  0.057208189   -2.4338631    1.0636523   957980 
  426000    1.0088411   -2.4323661   -2.4323661   -1.3696978   0.06937387   -2.4323661    1.0626683   957980 
  427000    1.0093922   -2.4329093   -2.4329093   -1.3696605    0.0564485   -2.4329093    1.0632489   957980 
  428000    1.0098015   -2.4330737   -2.4330737   -1.3693938  0.060664552   -2.4330737    1.0636799   957980 
  429000    1.0101021   -2.4338978   -2.4338978   -1.3699012  0.061529525   -2.4338978    1.0639966   957980 
  430000    1.0098569   -2.4334256   -2.4334256   -1.3696873  0.054244014   -2.4334256    1.0637383   957980 
  431000    1.0115218   -2.4348473   -2.4348473   -1.3693553  0.058575253   -2.4348473     1.065492   957980 
  432000    1.0097049   -2.4326967   -2.4326967   -1.3691185  0.060094294   -2.4326967    1.0635782   957980 
  433000    1.0106969   -2.4341265   -2.4341265   -1.3695034  0.066991457   -2.4341265    1.0646232   957980 
  434000    1.0114151   -2.4346232   -2.4346232   -1.3692435  0.061389418   -2.4346232    1.0653797   957980 
  435000    1.0112726   -2.4350344   -2.4350344   -1.3698049  0.057061907   -2.4350344    1.0652295   957980 
  436000    1.0106958   -2.4342857   -2.4342857   -1.3696637  0.064544385   -2.4342857     1.064622   957980 
  437000    1.0097653   -2.4331799   -2.4331799   -1.3695381  0.066631494   -2.4331799    1.0636418   957980 
  438000    1.0105111   -2.4337627   -2.4337627   -1.3693352  0.068628305   -2.4337627    1.0644274   957980 
  439000    1.0110366   -2.4344205   -2.4344205   -1.3694395  0.064108629   -2.4344205     1.064981   957980 
  440000     1.010889   -2.4348634   -2.4348634    -1.370038  0.060858871   -2.4348634    1.0648254   957980 
  441000    1.0109116   -2.4351528   -2.4351528   -1.3703036  0.058384268   -2.4351528    1.0648493   957980 
  442000    1.0108831   -2.4349548   -2.4349548   -1.3701355  0.057840026   -2.4349548    1.0648193   957980 
  443000     1.010899   -2.4351732   -2.4351732   -1.3703371   0.06760425   -2.4351732     1.064836   957980 
  444000    1.0109223   -2.4353486   -2.4353486   -1.3704881  0.057694692   -2.4353486    1.0648605   957980 
  445000    1.0108106   -2.4355898   -2.4355898   -1.3708469  0.066537748   -2.4355898    1.0647429   957980 
  446000    1.0112082   -2.4358202   -2.4358202   -1.3706585  0.056873365   -2.4358202    1.0651617   957980 
  447000    1.0110727   -2.4357913   -2.4357913   -1.3707723  0.065384273   -2.4357913     1.065019   957980 
  448000    1.0111276   -2.4362796   -2.4362796   -1.3712028  0.064108914   -2.4362796    1.0650768   957980 
  449000    1.0096492   -2.4347784   -2.4347784   -1.3712589  0.059171064   -2.4347784    1.0635195   957980 
  450000    1.0105897   -2.4357354   -2.4357354   -1.3712251   0.05702593   -2.4357354    1.0645103   957980 
  451000     1.009157   -2.4343451   -2.4343451    -1.371344  0.061647817   -2.4343451    1.0630011   957980 
  452000    1.0105058   -2.4351485   -2.4351485   -1.3707267  0.056532315   -2.4351485    1.0644218   957980 
  453000    1.0103341    -2.435168    -2.435168   -1.3709271  0.059733476    -2.435168    1.0642409   957980 
  454000    1.0102434   -2.4352116   -2.4352116   -1.3710662  0.067084293   -2.4352116    1.0641455   957980 
  455000    1.0097915   -2.4358537   -2.4358537   -1.3721843  0.065698049   -2.4358537    1.0636694   957980 
  456000    1.0105849   -2.4369275   -2.4369275   -1.3724224  0.061371464   -2.4369275    1.0645051   957980 
  457000    1.0103388   -2.4364116   -2.4364116   -1.3721657  0.060740479   -2.4364116    1.0642459   957980 
  458000    1.0096746   -2.4354534   -2.4354534   -1.3719071  0.059776498   -2.4354534    1.0635463   957980 
  459000    1.0109713   -2.4361055   -2.4361055   -1.3711933  0.067185919   -2.4361055    1.0649122   957980 
  460000    1.0102856   -2.4361102   -2.4361102   -1.3719204  0.056588582   -2.4361102    1.0641898   957980 
  461000    1.0105252   -2.4360522   -2.4360522   -1.3716099  0.064424779   -2.4360522    1.0644423   957980 
  462000    1.0101818   -2.4354194   -2.4354194   -1.3713388   0.06119007   -2.4354194    1.0640806   957980 
  463000    1.0112725   -2.4368585   -2.4368585   -1.3716291  0.062288097   -2.4368585    1.0652294   957980 
  464000     1.010534   -2.4362006   -2.4362006   -1.3717491  0.069509372   -2.4362006    1.0644516   957980 
  465000    1.0109799    -2.436708    -2.436708   -1.3717868  0.058912133    -2.436708    1.0649212   957980 
  466000    1.0109912   -2.4362772   -2.4362772    -1.371344  0.057798018   -2.4362772    1.0649332   957980 
  467000     1.009994   -2.4356892   -2.4356892   -1.3718065  0.059959219   -2.4356892    1.0638827   957980 
  468000    1.0102952   -2.4360577   -2.4360577   -1.3718577  0.067809415   -2.4360577       1.0642   957980 
  469000    1.0106005   -2.4368054   -2.4368054   -1.3722839  0.052344908   -2.4368054    1.0645216   957980 
  470000     1.011115   -2.4370375   -2.4370375   -1.3719739  0.067164879   -2.4370375    1.0650636   957980 
  471000    1.0112425   -2.4375502   -2.4375502   -1.3723523  0.062159794   -2.4375502    1.0651979   957980 
  472000    1.0102661   -2.4369571   -2.4369571   -1.3727877  0.057837485   -2.4369571    1.0641694   957980 
  473000    1.0107128   -2.4367548   -2.4367548   -1.3721148    0.0558021   -2.4367548    1.0646399   957980 
  474000    1.0103282   -2.4368112   -2.4368112   -1.3725764  0.061605412   -2.4368112    1.0642348   957980 
  475000    1.0107485   -2.4368222   -2.4368222   -1.3721447    0.0568807   -2.4368222    1.0646775   957980 
  476000    1.0091254   -2.4355282   -2.4355282   -1.3725603  0.063423896   -2.4355282    1.0629678   957980 
  477000    1.0098061   -2.4362081   -2.4362081   -1.3725233  0.058971486   -2.4362081    1.0636848   957980 
  478000    1.0108053    -2.436874    -2.436874   -1.3721367   0.06234369    -2.436874    1.0647373   957980 
  479000    1.0119516   -2.4381558   -2.4381558    -1.372211  0.062799336   -2.4381558    1.0659448   957980 
  480000    1.0109869   -2.4371536   -2.4371536    -1.372225  0.058352288   -2.4371536    1.0649286   957980 
  481000    1.0103801   -2.4369594   -2.4369594   -1.3726699  0.064904256   -2.4369594    1.0642895   957980 
  482000    1.0100834   -2.4364533   -2.4364533   -1.3724763  0.069880688   -2.4364533    1.0639769   957980 
  483000    1.0101399   -2.4363292   -2.4363292   -1.3722927  0.064785878   -2.4363292    1.0640364   957980 
  484000    1.0112775   -2.4380638   -2.4380638    -1.372829  0.067175129   -2.4380638    1.0652347   957980 
  485000    1.0106987   -2.4381992   -2.4381992   -1.3735741  0.065673167   -2.4381992    1.0646251   957980 
  486000    1.0101695   -2.4382301   -2.4382301   -1.3741625  0.058286578   -2.4382301    1.0640676   957980 
  487000    1.0094402   -2.4371007   -2.4371007   -1.3738013   0.06011367   -2.4371007    1.0632994   957980 
  488000    1.0098464   -2.4376435   -2.4376435   -1.3739163  0.066618501   -2.4376435    1.0637272   957980 
  489000    1.0097284   -2.4375491   -2.4375491   -1.3739461  0.061631722   -2.4375491     1.063603   957980 
  490000    1.0090191   -2.4367788   -2.4367788    -1.373923  0.054231397   -2.4367788    1.0628558   957980 
  491000    1.0106433   -2.4379767   -2.4379767   -1.3734101  0.061767843   -2.4379767    1.0645666   957980 
  492000    1.0106471   -2.4370837   -2.4370837    -1.372513  0.066089088   -2.4370837    1.0645707   957980 
  493000    1.0107975   -2.4377905   -2.4377905   -1.3730615  0.067644376   -2.4377905    1.0647291   957980 
  494000    1.0100962   -2.4377285   -2.4377285   -1.3737382  0.055657766   -2.4377285    1.0639903   957980 
  495000    1.0108928   -2.4387016   -2.4387016   -1.3738721  0.064459753   -2.4387016    1.0648295   957980 
  496000    1.0100866   -2.4377433   -2.4377433    -1.373763   0.06399069   -2.4377433    1.0639803   957980 
  497000    1.0106991   -2.4382856   -2.4382856   -1.3736601  0.057498613   -2.4382856    1.0646255   957980 
  498000    1.0100522   -2.4366408   -2.4366408   -1.3726967  0.069997124   -2.4366408    1.0639441   957980 
  499000    1.0102908   -2.4374575   -2.4374575   -1.3732622  0.060248756   -2.4374575    1.0641953   957980 
  500000    1.0099001   -2.4366951   -2.4366951   -1.3729113   0.05764793   -2.4366951    1.0637838   957980 
  501000    1.0094946    -2.436642    -2.436642   -1.3732853   0.05699854    -2.436642    1.0633567   957980 
  502000    1.0082988   -2.4358713   -2.4358713   -1.3737742  0.063640167   -2.4358713    1.0620971   957980 
  503000    1.0095022   -2.4366661   -2.4366661   -1.3733015  0.058873152   -2.4366661    1.0633647   957980 
  504000    1.0094609   -2.4361332   -2.4361332    -1.372812  0.062546347   -2.4361332    1.0633212   957980 
  505000    1.0108322   -2.4379673   -2.4379673   -1.3732016    0.0650324   -2.4379673    1.0647657   957980 
  506000    1.0102062   -2.4379917   -2.4379917   -1.3738855  0.055742905   -2.4379917    1.0641062   957980 
  507000    1.0110942    -2.438738    -2.438738   -1.3736964  0.056086349    -2.438738    1.0650416   957980 
  508000    1.0113963   -2.4393498   -2.4393498     -1.37399  0.063391647   -2.4393498    1.0653598   957980 
  509000    1.0100962   -2.4382245   -2.4382245   -1.3742341  0.060547095   -2.4382245    1.0639904   957980 
  510000    1.0096807   -2.4379715   -2.4379715   -1.3744188  0.056180526   -2.4379715    1.0635527   957980 
  511000    1.0089715    -2.437375    -2.437375   -1.3745692  0.055639241    -2.437375    1.0628057   957980 
  512000    1.0091643   -2.4373232   -2.4373232   -1.3743145  0.053138166   -2.4373232    1.0630087   957980 
  513000    1.0092931   -2.4372094   -2.4372094    -1.374065   0.06084197   -2.4372094    1.0631444   957980 
  514000    1.0089946   -2.4372349   -2.4372349   -1.3744048  0.062246327   -2.4372349      1.06283   957980 
  515000    1.0089998    -2.436525    -2.436525   -1.3736896  0.062774037    -2.436525    1.0628354   957980 
  516000    1.0112408   -2.4389307   -2.4389307   -1.3737346  0.060785311   -2.4389307     1.065196   957980 
  517000     1.009778   -2.4374619   -2.4374619   -1.3738067  0.061725269   -2.4374619    1.0636552   957980 
  518000    1.0108045    -2.438293    -2.438293   -1.3735565  0.061104163    -2.438293    1.0647365   957980 
  519000    1.0102484   -2.4377668   -2.4377668   -1.3736161  0.056688892   -2.4377668    1.0641507   957980 
  520000     1.011309    -2.438682    -2.438682   -1.3734141  0.056651215    -2.438682    1.0652679   957980 
  521000    1.0116909   -2.4391089   -2.4391089   -1.3734388   0.06133168   -2.4391089    1.0656702   957980 
  522000    1.0105896   -2.4377013   -2.4377013   -1.3731913  0.063079749   -2.4377013    1.0645101   957980 
  523000    1.0110283   -2.4395961   -2.4395961   -1.3746239  0.062026672   -2.4395961    1.0649722   957980 
  524000    1.0110929   -2.4391945   -2.4391945   -1.3741543  0.061043069   -2.4391945    1.0650402   957980 
  525000    1.0113676   -2.4387939   -2.4387939   -1.3734643  0.068591074   -2.4387939    1.0653296   957980 
  526000    1.0110473   -2.4388504   -2.4388504   -1.3738582   0.07267764   -2.4388504    1.0649922   957980 
  527000    1.0120347    -2.440069    -2.440069   -1.3740366  0.062363994    -2.440069    1.0660324   957980 
  528000     1.012442   -2.4401392   -2.4401392   -1.3736779  0.064013342   -2.4401392    1.0664614   957980 
  529000    1.0117894   -2.4393066   -2.4393066   -1.3735327  0.058323906   -2.4393066    1.0657739   957980 
  530000    1.0094628   -2.4379037   -2.4379037   -1.3745805  0.063845573   -2.4379037    1.0633232   957980 
  531000    1.0106076   -2.4394573   -2.4394573   -1.3749283   0.07168745   -2.4394573    1.0645291   957980 
  532000    1.0098159   -2.4385758   -2.4385758   -1.3748807  0.064023521   -2.4385758    1.0636951   957980 
  533000    1.0099439   -2.4399087   -2.4399087   -1.3760787   0.06512019   -2.4399087      1.06383   957980 
  534000     1.010003   -2.4398107   -2.4398107   -1.3759185  0.062850545   -2.4398107    1.0638922   957980 
  535000    1.0108714   -2.4411274   -2.4411274   -1.3763205  0.063408101   -2.4411274    1.0648069   957980 
  536000    1.0115381   -2.4416361   -2.4416361   -1.3761269  0.058011997   -2.4416361    1.0655092   957980 
  537000     1.010479   -2.4415284   -2.4415284   -1.3771347  0.058426635   -2.4415284    1.0643937   957980 
  538000    1.0093545   -2.4408803   -2.4408803   -1.3776713   0.05627603   -2.4408803    1.0632091   957980 
  539000    1.0095675   -2.4411114   -2.4411114   -1.3776779  0.058899427   -2.4411114    1.0634335   957980 
  540000    1.0093504   -2.4400863   -2.4400863   -1.3768815  0.069997206   -2.4400863    1.0632048   957980 
  541000    1.0105382    -2.441591    -2.441591    -1.377135  0.066135326    -2.441591     1.064456   957980 
  542000    1.0103959   -2.4408483   -2.4408483   -1.3765422  0.060450189   -2.4408483    1.0643061   957980 
  543000    1.0101434    -2.441051    -2.441051    -1.377011  0.061110493    -2.441051    1.0640401   957980 
  544000    1.0094127   -2.4403009   -2.4403009   -1.3770305  0.065420815   -2.4403009    1.0632704   957980 
  545000    1.0092881   -2.4405462   -2.4405462   -1.3774071  0.060547523   -2.4405462    1.0631391   957980 
  546000    1.0086925   -2.4401377   -2.4401377   -1.3776258  0.059460035   -2.4401377    1.0625118   957980 
  547000    1.0087797   -2.4392806   -2.4392806   -1.3766769  0.065999777   -2.4392806    1.0626036   957980 
  548000    1.0109751   -2.4418026   -2.4418026   -1.3768864  0.067026316   -2.4418026    1.0649162   957980 
  549000    1.0111428   -2.4421589   -2.4421589   -1.3770661  0.061787126   -2.4421589    1.0650929   957980 
  550000    1.0099004   -2.4406218   -2.4406218   -1.3768377  0.068080994   -2.4406218    1.0637841   957980 
  551000    1.0091809   -2.4393564   -2.4393564   -1.3763302  0.062008288   -2.4393564    1.0630262   957980 
  552000    1.0105319   -2.4409621   -2.4409621   -1.3765128  0.063556646   -2.4409621    1.0644493   957980 
  553000    1.0097623   -2.4403077   -2.4403077    -1.376669  0.065277824   -2.4403077    1.0636387   957980 
  554000    1.0103763   -2.4410357   -2.4410357   -1.3767503  0.060300709   -2.4410357    1.0642854   957980 
  555000    1.0096727   -2.4397451   -2.4397451   -1.3762008  0.069194551   -2.4397451    1.0635443   957980 
  556000    1.0099044    -2.440168    -2.440168   -1.3763797   0.05811762    -2.440168    1.0637883   957980 
  557000    1.0092467    -2.439909    -2.439909   -1.3768134  0.057301308    -2.439909    1.0630956   957980 
  558000    1.0096817   -2.4404984   -2.4404984   -1.3769446  0.067981803   -2.4404984    1.0635538   957980 
  559000    1.0081262   -2.4394032   -2.4394032    -1.377488  0.058856626   -2.4394032    1.0619152   957980 
  560000    1.0097527   -2.4404848   -2.4404848   -1.3768562  0.070866891   -2.4404848    1.0636285   957980 
  561000    1.0080826   -2.4388249   -2.4388249   -1.3769555  0.061503188   -2.4388249    1.0618693   957980 
  562000    1.0098803   -2.4404742   -2.4404742   -1.3767112  0.067184676   -2.4404742    1.0637629   957980 
  563000    1.0099091   -2.4400359   -2.4400359   -1.3762426  0.067052064   -2.4400359    1.0637933   957980 
  564000    1.0087718   -2.4394749   -2.4394749   -1.3768795  0.056425754   -2.4394749    1.0625954   957980 
  565000    1.0097941    -2.439928    -2.439928   -1.3762559  0.064894457    -2.439928    1.0636721   957980 
  566000    1.0091683   -2.4396753   -2.4396753   -1.3766623  0.062888938   -2.4396753     1.063013   957980 
  567000    1.0096976   -2.4403086   -2.4403086   -1.3767382  0.063289779   -2.4403086    1.0635705   957980 
  568000     1.010902   -2.4413417   -2.4413417   -1.3765025  0.063177253   -2.4413417    1.0648392   957980 
  569000    1.0102323   -2.4413043   -2.4413043   -1.3771705   0.06550738   -2.4413043    1.0641338   957980 
  570000    1.0088682   -2.4401323   -2.4401323   -1.3774355  0.060375065   -2.4401323    1.0626969   957980 
  571000    1.0107094   -2.4415596   -2.4415596   -1.3769233   0.06636942   -2.4415596    1.0646363   957980 
  572000    1.0089206   -2.4390036   -2.4390036   -1.3762515  0.057551424   -2.4390036     1.062752   957980 
  573000    1.0097239   -2.4396357   -2.4396357   -1.3760374  0.061248702   -2.4396357    1.0635983   957980 
  574000     1.008611   -2.4392596   -2.4392596   -1.3768337  0.062018885   -2.4392596     1.062426   957980 
  575000    1.0092325    -2.439408    -2.439408   -1.3763274  0.060439109    -2.439408    1.0630806   957980 
  576000    1.0095322   -2.4395796   -2.4395796   -1.3761833  0.062847097   -2.4395796    1.0633963   957980 
  577000    1.0102977   -2.4414236   -2.4414236    -1.377221  0.054654596   -2.4414236    1.0642026   957980 
  578000    1.0079157   -2.4381978   -2.4381978   -1.3765042  0.062117276   -2.4381978    1.0616935   957980 
  579000    1.0097665   -2.4399074   -2.4399074   -1.3762643  0.056960549   -2.4399074    1.0636431   957980 
  580000    1.0096573   -2.4399889   -2.4399889   -1.3764608  0.062110897   -2.4399889    1.0635281   957980 
  581000    1.0086089   -2.4392404   -2.4392404   -1.3768167  0.068276576   -2.4392404    1.0624237   957980 
  582000    1.0087937   -2.4395589   -2.4395589   -1.3769405  0.054534492   -2.4395589    1.0626184   957980 
  583000     1.008963    -2.439664    -2.439664   -1.3768673  0.065628054    -2.439664    1.0627967   957980 
  584000    1.0086885    -2.439931    -2.439931   -1.3774234  0.063399033    -2.439931    1.0625076   957980 
  585000    1.0078782   -2.4387792   -2.4387792   -1.3771252  0.061477965   -2.4387792     1.061654   957980 
  586000    1.0079463   -2.4390225   -2.4390225   -1.3772967  0.067679271   -2.4390225    1.0617258   957980 
  587000    1.0090339    -2.439751    -2.439751   -1.3768796  0.061304594    -2.439751    1.0628714   957980 
  588000     1.009384   -2.4403022   -2.4403022    -1.377062  0.060507713   -2.4403022    1.0632402   957980 
  589000     1.009404   -2.4406906   -2.4406906   -1.3774293  0.058345904   -2.4406906    1.0632613   957980 
  590000    1.0095236   -2.4403398   -2.4403398   -1.3769525  0.058013144   -2.4403398    1.0633873   957980 
  591000      1.00945   -2.4403489   -2.4403489   -1.3770391  0.066282882   -2.4403489    1.0633098   957980 
  592000    1.0101174   -2.4405236   -2.4405236    -1.376511  0.062307924   -2.4405236    1.0640127   957980 
  593000    1.0095554   -2.4404259   -2.4404259   -1.3770051  0.062982765   -2.4404259    1.0634207   957980 
  594000    1.0095614   -2.4408623   -2.4408623   -1.3774353  0.060748413   -2.4408623     1.063427   957980 
  595000    1.0097927   -2.4410103   -2.4410103   -1.3773396  0.060378651   -2.4410103    1.0636707   957980 
  596000    1.0096247   -2.4410132   -2.4410132   -1.3775195   0.06176486   -2.4410132    1.0634937   957980 
  597000    1.0099076   -2.4411134   -2.4411134   -1.3773217  0.059435903   -2.4411134    1.0637917   957980 
  598000      1.00978   -2.4409314   -2.4409314   -1.3772741  0.065247478   -2.4409314    1.0636573   957980 
  599000    1.0091953   -2.4404483   -2.4404483   -1.3774068  0.068101544   -2.4404483    1.0630415   957980 
  600000    1.0097494   -2.4409877   -2.4409877   -1.3773626  0.065978091   -2.4409877    1.0636251   957980 
  601000    1.0094026   -2.4413047   -2.4413047   -1.3780449  0.065231456   -2.4413047    1.0632598   957980 
  602000    1.0099049   -2.4422166   -2.4422166   -1.3784277  0.056788662   -2.4422166    1.0637888   957980 
  603000    1.0103026   -2.4421811   -2.4421811   -1.3779733  0.066940041   -2.4421811    1.0642078   957980 
  604000    1.0085836   -2.4401524   -2.4401524   -1.3777552  0.070425718   -2.4401524    1.0623971   957980 
  605000    1.0097597   -2.4421052   -2.4421052   -1.3784693  0.063144366   -2.4421052     1.063636   957980 
  606000    1.0091071   -2.4417128   -2.4417128   -1.3787643  0.067093899   -2.4417128    1.0629485   957980 
  607000    1.0086281   -2.4418377   -2.4418377   -1.3793938  0.061722374   -2.4418377     1.062444   957980 
  608000    1.0100037   -2.4427282   -2.4427282   -1.3788352  0.066131082   -2.4427282     1.063893   957980 
  609000    1.0095439   -2.4427217   -2.4427217   -1.3793131  0.060281595   -2.4427217    1.0634086   957980 
  610000    1.0091534   -2.4428914   -2.4428914   -1.3798941   0.06037668   -2.4428914    1.0629973   957980 
  611000    1.0095695    -2.443046    -2.443046   -1.3796104  0.060082693    -2.443046    1.0634356   957980 
  612000    1.0097462   -2.4431848   -2.4431848   -1.3795631  0.070336952   -2.4431848    1.0636217   957980 
  613000    1.0084938   -2.4422499   -2.4422499   -1.3799474  0.067689404   -2.4422499    1.0623025   957980 
  614000    1.0102736   -2.4436047   -2.4436047   -1.3794274  0.060552044   -2.4436047    1.0641772   957980 
  615000    1.0089935   -2.4421073   -2.4421073   -1.3792784  0.062275986   -2.4421073    1.0628289   957980 
  616000    1.0104072   -2.4435913   -2.4435913   -1.3792734  0.064314732   -2.4435913     1.064318   957980 
  617000    1.0096382   -2.4433279   -2.4433279     -1.37982  0.063710448   -2.4433279     1.063508   957980 
  618000    1.0102375   -2.4443022   -2.4443022    -1.380163  0.067011504   -2.4443022    1.0641392   957980 
  619000    1.0089517   -2.4431617   -2.4431617   -1.3803768  0.062774651   -2.4431617    1.0627848   957980 
  620000    1.0097284   -2.4439845   -2.4439845   -1.3803816  0.060551656   -2.4439845    1.0636029   957980 
  621000     1.009544    -2.443274    -2.443274   -1.3798653  0.065481539    -2.443274    1.0634087   957980 
  622000    1.0094413   -2.4433397   -2.4433397   -1.3800391  0.059243439   -2.4433397    1.0633006   957980 
  623000    1.0094571   -2.4433394   -2.4433394   -1.3800222  0.070246313   -2.4433394    1.0633171   957980 
  624000    1.0101437    -2.443806    -2.443806   -1.3797656  0.062939187    -2.443806    1.0640404   957980 
  625000    1.0095809   -2.4431053   -2.4431053   -1.3796576  0.067320663   -2.4431053    1.0634476   957980 
  626000    1.0105771   -2.4436865   -2.4436865   -1.3791896  0.063743555   -2.4436865    1.0644969   957980 
  627000    1.0096882    -2.443579    -2.443579   -1.3800184  0.060863759    -2.443579    1.0635606   957980 
  628000    1.0094548   -2.4431866   -2.4431866   -1.3798718  0.065598119   -2.4431866    1.0633148   957980 
  629000    1.0090933   -2.4424026   -2.4424026   -1.3794686  0.066664306   -2.4424026     1.062934   957980 
  630000    1.0105914   -2.4444875   -2.4444875   -1.3799755  0.066648493   -2.4444875     1.064512   957980 
  631000    1.0116983   -2.4456285   -2.4456285   -1.3799505  0.065833385   -2.4456285     1.065678   957980 
  632000    1.0105738   -2.4449493   -2.4449493   -1.3804558   0.05855893   -2.4449493    1.0644935   957980 
  633000    1.0094357   -2.4432436   -2.4432436    -1.379949  0.077654879   -2.4432436    1.0632946   957980 
  634000    1.0103127   -2.4444202   -2.4444202   -1.3802018  0.061073156   -2.4444202    1.0642185   957980 
  635000    1.0090615   -2.4427877   -2.4427877   -1.3798872  0.057434029   -2.4427877    1.0629005   957980 
  636000    1.0108734   -2.4452285   -2.4452285   -1.3804195  0.059988811   -2.4452285     1.064809   957980 
  637000    1.0089248   -2.4436823   -2.4436823   -1.3809258  0.059762709   -2.4436823    1.0627565   957980 
  638000    1.0100489   -2.4449519   -2.4449519   -1.3810113  0.062291849   -2.4449519    1.0639406   957980 
  639000    1.0094782   -2.4441819   -2.4441819   -1.3808426  0.062091584   -2.4441819    1.0633394   957980 
  640000    1.0101669   -2.4450488   -2.4450488    -1.380984  0.065412905   -2.4450488    1.0640649   957980 
  641000    1.0094594   -2.4439929   -2.4439929   -1.3806732  0.056842178   -2.4439929    1.0633196   957980 
  642000    1.0092279   -2.4442426   -2.4442426   -1.3811668  0.061680398   -2.4442426    1.0630758   957980 
  643000    1.0093584   -2.4438495   -2.4438495   -1.3806363  0.058838116   -2.4438495    1.0632132   957980 
  644000    1.0089822   -2.4437029   -2.4437029   -1.3808859  0.054769309   -2.4437029     1.062817   957980 
  645000    1.0081467   -2.4434613   -2.4434613   -1.3815245  0.056878086   -2.4434613    1.0619369   957980 
  646000    1.0094406   -2.4441966   -2.4441966   -1.3808968  0.060895829   -2.4441966    1.0632998   957980 
  647000    1.0101178   -2.4446242   -2.4446242   -1.3806111  0.061839075   -2.4446242    1.0640131   957980 
  648000    1.0097913   -2.4442185   -2.4442185   -1.3805492  0.067740598   -2.4442185    1.0636693   957980 
  649000    1.0099153    -2.444605    -2.444605   -1.3808051  0.065396011    -2.444605    1.0637999   957980 
[...]
 3832000    1.0090962   -2.4594434   -2.4594434   -1.3965063   0.07097563   -2.4594434    1.0629371   957980 
 3833000    1.0079394   -2.4580268   -2.4580268   -1.3963083  0.068682922   -2.4580268    1.0617185   957980 
 3834000    1.0085358   -2.4583647   -2.4583647    -1.396018  0.070275852   -2.4583647    1.0623467   957980 
 3835000    1.0068677   -2.4569911   -2.4569911   -1.3964014  0.072233613   -2.4569911    1.0605897   957980 
 3836000     1.007715   -2.4576589   -2.4576589   -1.3961767   0.06828984   -2.4576589    1.0614822   957980 
 3837000    1.0069104   -2.4571766   -2.4571766    -1.396542   0.07019389   -2.4571766    1.0606346   957980 
 3838000    1.0066276   -2.4568733   -2.4568733   -1.3965366  0.068782077   -2.4568733    1.0603367   957980 
 3839000    1.0066122   -2.4575812   -2.4575812   -1.3972606   0.05933352   -2.4575812    1.0603205   957980 
 3840000    1.0063516   -2.4568014   -2.4568014   -1.3967555  0.068654369   -2.4568014    1.0600459   957980 
 3841000    1.0060065   -2.4564553   -2.4564553   -1.3967729  0.069250498   -2.4564553    1.0596825   957980 
 3842000     1.006046   -2.4562235   -2.4562235   -1.3964995  0.064342437   -2.4562235    1.0597241   957980 
 3843000    1.0069464   -2.4573045   -2.4573045   -1.3966319  0.064158173   -2.4573045    1.0606726   957980 
 3844000    1.0061925   -2.4567957   -2.4567957   -1.3969173  0.075701704   -2.4567957    1.0598784   957980 
 3845000    1.0059915   -2.4566887   -2.4566887    -1.397022   0.06269744   -2.4566887    1.0596667   957980 
 3846000    1.0078775   -2.4573054   -2.4573054   -1.3956521  0.071363393   -2.4573054    1.0616533   957980 
 3847000    1.0079759   -2.4569067   -2.4569067   -1.3951497  0.067464205   -2.4569067     1.061757   957980 
 3848000    1.0078841   -2.4570687   -2.4570687   -1.3954084  0.065511886   -2.4570687    1.0616602   957980 
 3849000    1.0076481   -2.4568062   -2.4568062   -1.3953945  0.066457677   -2.4568062    1.0614117   957980 
 3850000    1.0071957   -2.4560159   -2.4560159   -1.3950807  0.071354158   -2.4560159    1.0609351   957980 
 3851000    1.0075656    -2.456816    -2.456816   -1.3954912  0.065637693    -2.456816    1.0613248   957980 
 3852000    1.0069978   -2.4561414   -2.4561414   -1.3954147   0.07291856   -2.4561414    1.0607267   957980 
 3853000    1.0080656   -2.4569201   -2.4569201   -1.3950687  0.065610183   -2.4569201    1.0618514   957980 
 3854000    1.0069992   -2.4561945   -2.4561945   -1.3954664   0.06619176   -2.4561945    1.0607281   957980 
 3855000    1.0069885   -2.4571895   -2.4571895   -1.3964727  0.067297794   -2.4571895    1.0607169   957980 
 3856000    1.0078571   -2.4571201   -2.4571201   -1.3954883  0.061903281   -2.4571201    1.0616318   957980 
 3857000    1.0078068   -2.4572201   -2.4572201   -1.3956412  0.068293729   -2.4572201    1.0615789   957980 
 3858000    1.0079229   -2.4572045   -2.4572045   -1.3955034   0.06718847   -2.4572045    1.0617011   957980 
 3859000    1.0092215   -2.4585568   -2.4585568   -1.3954879  0.077107158   -2.4585568     1.063069   957980 
 3860000    1.0096292   -2.4587852   -2.4587852   -1.3952867  0.069144022   -2.4587852    1.0634984   957980 
 3861000     1.007279   -2.4569033   -2.4569033   -1.3958804  0.073359614   -2.4569033    1.0610229   957980 
 3862000    1.0071914   -2.4559933   -2.4559933   -1.3950627  0.075213903   -2.4559933    1.0609306   957980 
 3863000    1.0088665   -2.4580947   -2.4580947   -1.3953996  0.068684709   -2.4580947    1.0626951   957980 
 3864000    1.0071933   -2.4567689   -2.4567689   -1.3958364  0.077176932   -2.4567689    1.0609326   957980 
 3865000    1.0096745   -2.4598028   -2.4598028   -1.3962566   0.06005483   -2.4598028    1.0635462   957980 
 3866000    1.0066755   -2.4561166   -2.4561166   -1.3957294  0.074152417   -2.4561166    1.0603872   957980 
 3867000    1.0079601   -2.4572077   -2.4572077   -1.3954674  0.068599631   -2.4572077    1.0617403   957980 
 3868000    1.0071371   -2.4566301   -2.4566301   -1.3957567  0.065961838   -2.4566301    1.0608734   957980 
 3869000    1.0086301   -2.4582508   -2.4582508   -1.3958047  0.067434141   -2.4582508    1.0624461   957980 
 3870000    1.0072605   -2.4574832   -2.4574832   -1.3964799  0.066381593   -2.4574832    1.0610033   957980 
 3871000    1.0078128    -2.457071    -2.457071   -1.3954859  0.072223195    -2.457071    1.0615851   957980 
 3872000     1.007603   -2.4572595   -2.4572595   -1.3958953  0.070399904   -2.4572595    1.0613642   957980 
 3873000    1.0068777   -2.4562867   -2.4562867   -1.3956865  0.073608361   -2.4562867    1.0606002   957980 
 3874000    1.0084452   -2.4583198   -2.4583198   -1.3960684  0.079348512   -2.4583198    1.0622513   957980 
 3875000    1.0078244   -2.4572534   -2.4572534    -1.395656  0.068034597   -2.4572534    1.0615974   957980 
 3876000    1.0076633   -2.4572182   -2.4572182   -1.3957905     0.066572   -2.4572182    1.0614276   957980 
 3877000    1.0068652   -2.4561235   -2.4561235   -1.3955365  0.075207089   -2.4561235     1.060587   957980 
 3878000    1.0075768   -2.4561067   -2.4561067   -1.3947701  0.066308633   -2.4561067    1.0613366   957980 
 3879000    1.0077796   -2.4555824   -2.4555824   -1.3940323   0.06493929   -2.4555824    1.0615502   957980 
 3880000    1.0083512   -2.4564421   -2.4564421   -1.3942899  0.074593368   -2.4564421    1.0621523   957980 
 3881000    1.0083637   -2.4566373   -2.4566373   -1.3944718   0.06349829   -2.4566373    1.0621655   957980 
 3882000    1.0074514   -2.4554247   -2.4554247   -1.3942202  0.067458332   -2.4554247    1.0612044   957980 
 3883000    1.0078869   -2.4562935   -2.4562935   -1.3946303  0.067425006   -2.4562935    1.0616632   957980 
 3884000    1.0064331   -2.4547625   -2.4547625   -1.3946306  0.071209602   -2.4547625    1.0601319   957980 
 3885000    1.0065121   -2.4544089   -2.4544089   -1.3941938  0.065960871   -2.4544089    1.0602151   957980 
 3886000    1.0070556    -2.454741    -2.454741   -1.3939535  0.067265311    -2.454741    1.0607875   957980 
 3887000    1.0063387   -2.4536814   -2.4536814    -1.393649   0.06360044   -2.4536814    1.0600324   957980 
 3888000    1.0077646   -2.4546811   -2.4546811   -1.3931468  0.069015803   -2.4546811    1.0615344   957980 
 3889000    1.0073563   -2.4547348   -2.4547348   -1.3936305   0.05921543   -2.4547348    1.0611043   957980 
 3890000     1.008117   -2.4548116   -2.4548116   -1.3929061   0.06583665   -2.4548116    1.0619055   957980 
 3891000     1.007933   -2.4545675   -2.4545675   -1.3928558  0.074136849   -2.4545675    1.0617118   957980 
 3892000    1.0071915   -2.4544036   -2.4544036    -1.393473   0.06637062   -2.4544036    1.0609307   957980 
 3893000    1.0072383   -2.4545258   -2.4545258   -1.3935458  0.067708319   -2.4545258      1.06098   957980 
 3894000    1.0068143   -2.4545765   -2.4545765   -1.3940431  0.066599169   -2.4545765    1.0605334   957980 
 3895000    1.0076939   -2.4552485   -2.4552485   -1.3937885  0.066401343   -2.4552485      1.06146   957980 
 3896000    1.0071568   -2.4556325   -2.4556325   -1.3947384  0.071428407   -2.4556325    1.0608941   957980 
 3897000    1.0059845   -2.4545565   -2.4545565   -1.3948973  0.069220375   -2.4545565    1.0596593   957980 
 3898000    1.0061088   -2.4546945   -2.4546945   -1.3949043  0.074421391   -2.4546945    1.0597902   957980 
 3899000    1.0066582   -2.4555598   -2.4555598   -1.3951908  0.063178518   -2.4555598    1.0603689   957980 
 3900000    1.0048842   -2.4535576   -2.4535576   -1.3950574  0.065636751   -2.4535576    1.0585003   957980 
 3901000    1.0064516    -2.454943    -2.454943   -1.3947916   0.06618371    -2.454943    1.0601513   957980 
 3902000    1.0063777   -2.4549096   -2.4549096   -1.3948362  0.073531592   -2.4549096    1.0600735   957980 
 3903000    1.0078566   -2.4559222   -2.4559222   -1.3942909  0.069649615   -2.4559222    1.0616313   957980 
 3904000     1.006774   -2.4552123   -2.4552123   -1.3947214  0.066760498   -2.4552123    1.0604909   957980 
 3905000    1.0066307   -2.4552755   -2.4552755   -1.3949355  0.068781363   -2.4552755      1.06034   957980 
 3906000    1.0079837   -2.4564853   -2.4564853   -1.3947201  0.076417896   -2.4564853    1.0617652   957980 
 3907000    1.0084657   -2.4569693   -2.4569693   -1.3946964  0.075853217   -2.4569693    1.0622729   957980 
 3908000    1.0088515   -2.4575207   -2.4575207   -1.3948415  0.072191706   -2.4575207    1.0626792   957980 
 3909000    1.0083981   -2.4574471   -2.4574471   -1.3952454   0.07456212   -2.4574471    1.0622017   957980 
 3910000    1.0064716   -2.4556544   -2.4556544    -1.395482  0.066337417   -2.4556544    1.0601724   957980 
 3911000    1.0080461   -2.4568543   -2.4568543   -1.3950235  0.067373659   -2.4568543    1.0618309   957980 
 3912000    1.0077271   -2.4569894   -2.4569894   -1.3954944  0.061546699   -2.4569894    1.0614949   957980 
 3913000    1.0085823    -2.458499    -2.458499   -1.3961034  0.069856918    -2.458499    1.0623957   957980 
 3914000    1.0088909   -2.4592921   -2.4592921   -1.3965712  0.067140309   -2.4592921    1.0627208   957980 
 3915000      1.00754   -2.4572557   -2.4572557   -1.3959578  0.065923496   -2.4572557    1.0612978   957980 
 3916000    1.0071441    -2.457508    -2.457508   -1.3966272  0.073897042    -2.457508    1.0608808   957980 
 3917000    1.0071966   -2.4574419   -2.4574419   -1.3965058  0.071132786   -2.4574419    1.0609361   957980 
 3918000    1.0072365   -2.4576717   -2.4576717   -1.3966935  0.057869347   -2.4576717    1.0609781   957980 
 3919000    1.0064131   -2.4563522   -2.4563522   -1.3962414  0.071634681   -2.4563522    1.0601107   957980 
 3920000     1.007274   -2.4566967   -2.4566967   -1.3956791  0.070177792   -2.4566967    1.0610176   957980 
 3921000    1.0077658   -2.4573393   -2.4573393   -1.3958036  0.070930934   -2.4573393    1.0615357   957980 
 3922000    1.0094009    -2.458166    -2.458166   -1.3949079  0.067735719    -2.458166     1.063258   957980 
 3923000    1.0080877   -2.4569179   -2.4569179   -1.3950431  0.069676921   -2.4569179    1.0618748   957980 
 3924000    1.0089443   -2.4580619   -2.4580619   -1.3952849  0.070908647   -2.4580619    1.0627771   957980 
 3925000    1.0082195   -2.4570621   -2.4570621   -1.3950485  0.074021215   -2.4570621    1.0620136   957980 
 3926000    1.0087279   -2.4577933   -2.4577933   -1.3952442  0.063911232   -2.4577933     1.062549   957980 
 3927000    1.0084759   -2.4576015   -2.4576015   -1.3953179  0.070592562   -2.4576015    1.0622836   957980 
 3928000    1.0091865   -2.4586231   -2.4586231   -1.3955909  0.069047755   -2.4586231    1.0630322   957980 
 3929000    1.0080606   -2.4572249   -2.4572249   -1.3953787  0.069268775   -2.4572249    1.0618462   957980 
 3930000    1.0056667   -2.4555156   -2.4555156    -1.396191  0.065465675   -2.4555156    1.0593246   957980 
 3931000    1.0077568   -2.4580749   -2.4580749   -1.3965487   0.06804695   -2.4580749    1.0615262   957980 
 3932000    1.0070012   -2.4574193   -2.4574193   -1.3966891  0.069712427   -2.4574193    1.0607302   957980 
 3933000    1.0074137   -2.4581127   -2.4581127   -1.3969479  0.064549275   -2.4581127    1.0611647   957980 
 3934000     1.005053   -2.4552639   -2.4552639   -1.3965858  0.067915535   -2.4552639    1.0586781   957980 
 3935000    1.0069236   -2.4566214   -2.4566214   -1.3959729  0.073804733   -2.4566214    1.0606485   957980 
 3936000    1.0064341   -2.4568616   -2.4568616   -1.3967287  0.061349485   -2.4568616    1.0601329   957980 
 3937000    1.0053945    -2.455606    -2.455606   -1.3965681  0.068872523    -2.455606    1.0590379   957980 
 3938000    1.0057547    -2.456423    -2.456423   -1.3970058  0.066222431    -2.456423    1.0594172   957980 
 3939000    1.0056766   -2.4560508   -2.4560508   -1.3967158   0.06948901   -2.4560508     1.059335   957980 
 3940000    1.0052228   -2.4553511   -2.4553511   -1.3964941  0.069343508   -2.4553511    1.0588569   957980 
 3941000    1.0065763   -2.4564264   -2.4564264   -1.3961437  0.065749755   -2.4564264    1.0602827   957980 
 3942000    1.0065351    -2.455259    -2.455259   -1.3950197  0.071596117    -2.455259    1.0602393   957980 
 3943000    1.0070832   -2.4552712   -2.4552712   -1.3944546  0.068472493   -2.4552712    1.0608166   957980 
 3944000    1.0069062    -2.455368    -2.455368   -1.3947378  0.068230706    -2.455368    1.0606302   957980 
 3945000     1.007339   -2.4554414   -2.4554414   -1.3943553  0.060674872   -2.4554414     1.061086   957980 
 3946000    1.0074607   -2.4557038   -2.4557038   -1.3944895  0.070200286   -2.4557038    1.0612143   957980 
 3947000      1.00754   -2.4555191   -2.4555191   -1.3942212  0.073551537   -2.4555191    1.0612978   957980 
 3948000    1.0087711    -2.456847    -2.456847   -1.3942524  0.068062062    -2.456847    1.0625946   957980 
 3949000    1.0071817    -2.455558    -2.455558   -1.3946376  0.069398046    -2.455558    1.0609204   957980 
 3950000    1.0082016   -2.4566176   -2.4566176   -1.3946228  0.065602707   -2.4566176    1.0619947   957980 
 3951000    1.0070422   -2.4559742   -2.4559742   -1.3952008  0.063179866   -2.4559742    1.0607734   957980 
 3952000    1.0074744   -2.4567703   -2.4567703   -1.3955416   0.07362204   -2.4567703    1.0612287   957980 
 3953000    1.0065828   -2.4563796   -2.4563796   -1.3960901   0.06210963   -2.4563796    1.0602895   957980 
 3954000    1.0058949   -2.4554111   -2.4554111   -1.3958461  0.062913827   -2.4554111     1.059565   957980 
 3955000    1.0059179   -2.4556106   -2.4556106   -1.3960215  0.060144675   -2.4556106    1.0595892   957980 
 3956000    1.0061095   -2.4554983   -2.4554983   -1.3957074  0.067552387   -2.4554983     1.059791   957980 
 3957000    1.0068567   -2.4563217   -2.4563217   -1.3957436    0.0686889   -2.4563217    1.0605781   957980 
 3958000    1.0069274   -2.4566545   -2.4566545    -1.396002  0.075288811   -2.4566545    1.0606525   957980 
 3959000    1.0067209   -2.4561245   -2.4561245   -1.3956895  0.066655832   -2.4561245     1.060435   957980 
 3960000    1.0068037   -2.4561976   -2.4561976   -1.3956755  0.071548528   -2.4561976    1.0605222   957980 
 3961000    1.0075793   -2.4566667   -2.4566667   -1.3953275  0.064920913   -2.4566667    1.0613392   957980 
 3962000    1.0080687   -2.4564968   -2.4564968   -1.3946421  0.073722369   -2.4564968    1.0618547   957980 
 3963000    1.0098872   -2.4585163   -2.4585163   -1.3947461  0.061782691   -2.4585163    1.0637702   957980 
 3964000    1.0074299   -2.4553984   -2.4553984   -1.3942166  0.073526167   -2.4553984    1.0611818   957980 
 3965000    1.0081673    -2.456499    -2.456499   -1.3945404    0.0688325    -2.456499    1.0619586   957980 
 3966000    1.0085915   -2.4572441   -2.4572441   -1.3948387  0.069427452   -2.4572441    1.0624053   957980 
 3967000    1.0080905   -2.4572992   -2.4572992   -1.3954215  0.067859254   -2.4572992    1.0618777   957980 
 3968000    1.0080233   -2.4572399   -2.4572399    -1.395433   0.06712311   -2.4572399    1.0618069   957980 
 3969000    1.0066818   -2.4569467   -2.4569467   -1.3965529  0.062547781   -2.4569467    1.0603938   957980 
 3970000    1.0071318   -2.4570235   -2.4570235   -1.3961557  0.067311062   -2.4570235    1.0608678   957980 
 3971000    1.0061903   -2.4567757   -2.4567757   -1.3968997  0.059780253   -2.4567757     1.059876   957980 
 3972000    1.0048805   -2.4552049   -2.4552049   -1.3967085  0.058096944   -2.4552049    1.0584964   957980 
 3973000    1.0048846   -2.4551631   -2.4551631   -1.3966623  0.067839729   -2.4551631    1.0585008   957980 
 3974000    1.0051431   -2.4556531   -2.4556531   -1.3968801  0.067136173   -2.4556531     1.058773   957980 
 3975000    1.0051209   -2.4550797   -2.4550797   -1.3963301  0.060042223   -2.4550797    1.0587496   957980 
 3976000    1.0058364   -2.4556959   -2.4556959   -1.3961926  0.066120981   -2.4556959    1.0595033   957980 
 3977000    1.0076671   -2.4570496   -2.4570496   -1.3956179  0.066543493   -2.4570496    1.0614317   957980 
 3978000    1.0069621   -2.4556055   -2.4556055   -1.3949164   0.07505884   -2.4556055    1.0606891   957980 
 3979000    1.0084779   -2.4570393   -2.4570393   -1.3947536  0.074337605   -2.4570393    1.0622857   957980 
 3980000    1.0078699   -2.4566101   -2.4566101   -1.3949647  0.070609524   -2.4566101    1.0616453   957980 
 3981000    1.0082517   -2.4568953   -2.4568953   -1.3948478  0.067915373   -2.4568953    1.0620475   957980 
 3982000    1.0086237   -2.4567931   -2.4567931   -1.3943538  0.071868779   -2.4567931    1.0624393   957980 
 3983000    1.0081501   -2.4577354   -2.4577354   -1.3957949  0.073040701   -2.4577354    1.0619405   957980 
 3984000    1.0074356    -2.456187    -2.456187   -1.3949992  0.073345346    -2.456187    1.0611879   957980 
 3985000    1.0076613   -2.4564968   -2.4564968   -1.3950712  0.060898549   -2.4564968    1.0614256   957980 
 3986000    1.0071703   -2.4551955   -2.4551955   -1.3942872  0.069124215   -2.4551955    1.0609084   957980 
 3987000    1.0073528   -2.4560461   -2.4560461   -1.3949455  0.072109775   -2.4560461    1.0611006   957980 
 3988000    1.0080309   -2.4564624   -2.4564624   -1.3946475  0.066958348   -2.4564624    1.0618149   957980 
 3989000    1.0067637   -2.4553595   -2.4553595   -1.3948794  0.066595491   -2.4553595    1.0604801   957980 
 3990000    1.0069615   -2.4562791   -2.4562791   -1.3955907   0.06601354   -2.4562791    1.0606884   957980 
 3991000    1.0081113   -2.4568621   -2.4568621   -1.3949625  0.069269577   -2.4568621    1.0618996   957980 
 3992000    1.0063738   -2.4556891   -2.4556891   -1.3956197  0.061543993   -2.4556891    1.0600694   957980 
 3993000    1.0070448   -2.4572894   -2.4572894   -1.3965133  0.064820926   -2.4572894    1.0607762   957980 
 3994000    1.0079687   -2.4568552   -2.4568552   -1.3951059  0.067613074   -2.4568552    1.0617493   957980 
 3995000    1.0066627   -2.4558318   -2.4558318   -1.3954581  0.070329867   -2.4558318    1.0603737   957980 
 3996000    1.0068823   -2.4556818   -2.4556818   -1.3950768  0.068014793   -2.4556818     1.060605   957980 
 3997000    1.0071064   -2.4554993   -2.4554993   -1.3946583  0.068377162   -2.4554993     1.060841   957980 
 3998000    1.0073711   -2.4560223   -2.4560223   -1.3949025  0.069263837   -2.4560223    1.0611198   957980 
 3999000    1.0070961   -2.4560138   -2.4560138   -1.3951836  0.059251438   -2.4560138    1.0608302   957980 
 4000000     1.007316   -2.4560921   -2.4560921   -1.3950302  0.072202292   -2.4560921    1.0610619   957980 
Loop time of 12727.1 on 240 procs for 4000000 steps with 957980 atoms

Performance: 135773.431 tau/day, 314.290 timesteps/s
98.1% CPU use with 240 MPI tasks x 1 OpenMP threads

MPI task timing breakdown:
Section |  min time  |  avg time  |  max time  |%varavg|  %CPU | %total
-----------------------------------------------------------------------
Pair    | 1374.2     | 3488.2     | 4514.4     |1154.8 |  98.5 | 27.41
Bond    | 2.6928     | 2.9128     | 3.1573     |   5.1 | 100.0 |  0.02
Neigh   | 1348.1     | 3208       | 4155.6     |1025.0 |  99.5 | 25.21
Comm    | 2636.9     | 3953.5     | 7695       |1739.6 |  97.3 | 31.06
Output  | 138.16     | 138.98     | 140.84     |   5.9 |  94.9 |  1.09
Modify  | 1382.3     | 1764.2     | 2154.9     | 450.2 |  97.7 | 13.86
Other   |            | 171.2      |            |       |       |  1.35

Nlocal:        3991.58 ave        4927 max        3394 min
Histogram: 18 26 36 52 44 28 16 12 6 2
Nghost:        7665.24 ave       10838 max        2855 min
Histogram: 15 12 13 14 14 21 42 52 43 14
Neighs:        82059.7 ave      116485 max       21919 min
Histogram: 13 4 2 2 10 42 77 52 19 19

Total # of neighbors = 19694321
Ave neighs/atom = 20.558176
Ave special neighs/atom = 0.0000000
Neighbor list builds = 400000
Dangerous builds = 396000

Total wall time: 3:32:12
